 vasp.5.4.1 24Jun15 (build Nov 25 2015 16:39:35) complex                        
  
 executed on         CrayXC-Intel date 2016.10.08  20:34:31
 running on   24 total cores
 distrk:  each k-point on   24 cores,    1 groups
 distr:  one band on NCORES_PER_BAND=  24 cores,    1 groups


--------------------------------------------------------------------------------------------------------


 INCAR:
 POTCAR:    PAW_PBE C 08Apr2002                   
 POTCAR:    PAW_PBE N 08Apr2002                   
 POTCAR:    PAW_PBE H 15Jun2001                   
 POTCAR:    PAW_PBE Pb_d 06Sep2000                
 POTCAR:    PAW_PBE I 08Apr2002                   

 ----------------------------------------------------------------------------- 
|                                                                             |
|           W    W    AA    RRRRR   N    N  II  N    N   GGGG   !!!           |
|           W    W   A  A   R    R  NN   N  II  NN   N  G    G  !!!           |
|           W    W  A    A  R    R  N N  N  II  N N  N  G       !!!           |
|           W WW W  AAAAAA  RRRRR   N  N N  II  N  N N  G  GGG   !            |
|           WW  WW  A    A  R   R   N   NN  II  N   NN  G    G                |
|           W    W  A    A  R    R  N    N  II  N    N   GGGG   !!!           |
|                                                                             |
|      For optimal performance we recommend to set                            |
|        NCORE= 4 - approx SQRT( number of cores)                             |
|      NCORE specifies how many cores store one orbital (NPAR=cpu/NCORE).     |
|      This setting can  greatly improve the performance of VASP for DFT.     |
|      The default, NPAR=number of cores might be grossly inefficient         |
|      on modern multi-core architectures or massively parallel machines.     |
|      Do your own testing !!!!                                               |
|      Unfortunately you need to use the default for GW and RPA calculations. |
|      (for HF NCORE is supported but not extensively tested yet)             |
|                                                                             |
 ----------------------------------------------------------------------------- 

 POTCAR:    PAW_PBE C 08Apr2002                   
   VRHFIN =C: s2p2                                                              
   LEXCH  = PE                                                                  
   EATOM  =   147.1560 eV,   10.8157 Ry                                         
                                                                                
   TITEL  = PAW_PBE C 08Apr2002                                                 
   LULTRA =        F    use ultrasoft PP ?                                      
   IUNSCR =        1    unscreen: 0-lin 1-nonlin 2-no                           
   RPACOR =    1.200    partial core radius                                     
   POMASS =   12.011; ZVAL   =    4.000    mass and valenz                      
   RCORE  =    1.500    outmost cutoff radius                                   
   RWIGS  =    1.630; RWIGS  =    0.863    wigner-seitz radius (au A)           
   ENMAX  =  400.000; ENMIN  =  300.000 eV                                      
   ICORE  =        2    local potential                                         
   LCOR   =        T    correct aug charges                                     
   LPAW   =        T    paw PP                                                  
   EAUG   =  644.873                                                            
   DEXC   =    0.000                                                            
   RMAX   =    1.529    core radius for proj-oper                               
   RAUG   =    1.300    factor for augmentation sphere                          
   RDEP   =    1.501    radius for radial grids                                 
   RDEPT  =    1.300    core radius for aug-charge                              
                                                                                
   Atomic configuration                                                         
    4 entries                                                                   
     n  l   j            E        occ.                                          
     1  0  0.50      -273.3789   2.0000                                         
     2  0  0.50       -13.7508   2.0000                                         
     2  1  0.50        -5.2854   2.0000                                         
     3  2  1.50        -5.4423   0.0000                                         
   Description                                                                  
     l       E           TYP  RCUT    TYP  RCUT                                 
     0    -13.7508458     23  1.200                                             
     0     -8.2022199     23  1.200                                             
     1     -5.2854383     23  1.500                                             
     1     34.0145650     23  1.500                                             
     2     -5.4423304      7  1.500                                             
  local pseudopotential read in
  partial core-charges read in
  partial kinetic energy density read in
  atomic valenz-charges read in
  non local Contribution for L=           0  read in
    real space projection operators read in
  non local Contribution for L=           0  read in
    real space projection operators read in
  non local Contribution for L=           1  read in
    real space projection operators read in
  non local Contribution for L=           1  read in
    real space projection operators read in
    PAW grid and wavefunctions read in
 
   number of l-projection  operators is LMAX  =           4
   number of lm-projection operators is LMMAX =           8
 
 POTCAR:    PAW_PBE N 08Apr2002                   
   VRHFIN =N: s2p3                                                              
   LEXCH  = PE                                                                  
   EATOM  =   264.5486 eV,   19.4438 Ry                                         
                                                                                
   TITEL  = PAW_PBE N 08Apr2002                                                 
   LULTRA =        F    use ultrasoft PP ?                                      
   IUNSCR =        1    unscreen: 0-lin 1-nonlin 2-no                           
   RPACOR =    1.200    partial core radius                                     
   POMASS =   14.001; ZVAL   =    5.000    mass and valenz                      
   RCORE  =    1.500    outmost cutoff radius                                   
   RWIGS  =    1.400; RWIGS  =    0.741    wigner-seitz radius (au A)           
   ENMAX  =  400.000; ENMIN  =  300.000 eV                                      
   ICORE  =        2    local potential                                         
   LCOR   =        T    correct aug charges                                     
   LPAW   =        T    paw PP                                                  
   EAUG   =  627.112                                                            
   DEXC   =    0.000                                                            
   RMAX   =    1.529    core radius for proj-oper                               
   RAUG   =    1.300    factor for augmentation sphere                          
   RDEP   =    1.514    radius for radial grids                                 
   RDEPT  =    1.338    core radius for aug-charge                              
                                                                                
   Atomic configuration                                                         
    4 entries                                                                   
     n  l   j            E        occ.                                          
     1  0  0.50      -384.7179   2.0000                                         
     2  0  0.50       -18.5828   2.0000                                         
     2  1  0.50        -7.0898   3.0000                                         
     3  2  1.50        -6.8029   0.0000                                         
   Description                                                                  
     l       E           TYP  RCUT    TYP  RCUT                                 
     0    -18.5828119     23  1.200                                             
     0    -13.5018863     23  1.200                                             
     1     -7.0897853     23  1.500                                             
     1      9.5240782     23  1.500                                             
     2     -6.8029130      7  1.500                                             
  local pseudopotential read in
  partial core-charges read in
  partial kinetic energy density read in
  atomic valenz-charges read in
  non local Contribution for L=           0  read in
    real space projection operators read in
  non local Contribution for L=           0  read in
    real space projection operators read in
  non local Contribution for L=           1  read in
    real space projection operators read in
  non local Contribution for L=           1  read in
    real space projection operators read in
    PAW grid and wavefunctions read in
 
   number of l-projection  operators is LMAX  =           4
   number of lm-projection operators is LMMAX =           8
 
 POTCAR:    PAW_PBE H 15Jun2001                   
   VRHFIN =H: ultrasoft test                                                    
   LEXCH  = PE                                                                  
   EATOM  =    12.4884 eV,    0.9179 Ry                                         
                                                                                
   TITEL  = PAW_PBE H 15Jun2001                                                 
   LULTRA =        F    use ultrasoft PP ?                                      
   IUNSCR =        0    unscreen: 0-lin 1-nonlin 2-no                           
   RPACOR =    0.000    partial core radius                                     
   POMASS =    1.000; ZVAL   =    1.000    mass and valenz                      
   RCORE  =    1.100    outmost cutoff radius                                   
   RWIGS  =    0.700; RWIGS  =    0.370    wigner-seitz radius (au A)           
   ENMAX  =  250.000; ENMIN  =  200.000 eV                                      
   RCLOC  =    0.701    cutoff for local pot                                    
   LCOR   =        T    correct aug charges                                     
   LPAW   =        T    paw PP                                                  
   EAUG   =  400.000                                                            
   RMAX   =    1.123    core radius for proj-oper                               
   RAUG   =    1.200    factor for augmentation sphere                          
   RDEP   =    1.112    radius for radial grids                                 
   RDEPT  =    0.926    core radius for aug-charge                              
                                                                                
   Atomic configuration                                                         
    2 entries                                                                   
     n  l   j            E        occ.                                          
     1  0  0.50        -6.4927   1.0000                                         
     2  1  0.50        -3.4015   0.0000                                         
   Description                                                                  
     l       E           TYP  RCUT    TYP  RCUT                                 
     0     -6.4927494     23  1.100                                             
     0      6.8029130     23  1.100                                             
     1     -4.0817478     23  1.100                                             
  local pseudopotential read in
  atomic valenz-charges read in
  non local Contribution for L=           0  read in
    real space projection operators read in
  non local Contribution for L=           0  read in
    real space projection operators read in
  non local Contribution for L=           1  read in
    real space projection operators read in
    PAW grid and wavefunctions read in
 
   number of l-projection  operators is LMAX  =           3
   number of lm-projection operators is LMMAX =           5
 
 POTCAR:    PAW_PBE Pb_d 06Sep2000                
   VRHFIN =Pb:                                                                  
   LEXCH  = PE                                                                  
   EATOM  =  1661.6185 eV,  122.1255 Ry                                         
                                                                                
   TITEL  = PAW_PBE Pb_d 06Sep2000                                              
   LULTRA =        F    use ultrasoft PP ?                                      
   IUNSCR =        1    unscreen: 0-lin 1-nonlin 2-no                           
   RPACOR =    2.200    partial core radius                                     
   POMASS =  207.200; ZVAL   =   14.000    mass and valenz                      
   RCORE  =    2.500    outmost cutoff radius                                   
   RWIGS  =    3.260; RWIGS  =    1.725    wigner-seitz radius (au A)           
   ENMAX  =  237.835; ENMIN  =  178.376 eV                                      
   ICORE  =        3    local potential                                         
   LCOR   =        T    correct aug charges                                     
   LPAW   =        T    paw PP                                                  
   EAUG   =  391.914                                                            
   DEXC   =    0.000                                                            
   RMAX   =    2.565    core radius for proj-oper                               
   RAUG   =    1.300    factor for augmentation sphere                          
   RDEP   =    2.643    radius for radial grids                                 
   RDEPT  =    2.092    core radius for aug-charge                              
                                                                                
   Atomic configuration                                                         
   16 entries                                                                   
     n  l   j            E        occ.                                          
     1  0  0.50    -88091.8466   2.0000                                         
     2  0  0.50    -15753.4197   2.0000                                         
     2  1  1.50    -13508.1797   6.0000                                         
     3  0  0.50     -3781.7194   2.0000                                         
     3  1  1.50     -3138.2529   6.0000                                         
     3  2  2.50     -2483.2977  10.0000                                         
     4  0  0.50      -856.2895   2.0000                                         
     4  1  1.50      -645.4942   6.0000                                         
     4  2  2.50      -401.8768  10.0000                                         
     4  3  3.50      -132.9059  14.0000                                         
     5  0  0.50      -144.0950   2.0000                                         
     5  1  1.50       -85.7879   6.0000                                         
     5  2  2.50       -21.1769  10.0000                                         
     6  0  0.50       -12.0372   2.0000                                         
     6  1  1.50        -3.4971   2.0000                                         
     5  3  2.50        -2.7212   0.0000                                         
   Description                                                                  
     l       E           TYP  RCUT    TYP  RCUT                                 
     2    -21.1768523     23  2.500                                             
     2      1.3605826     23  2.500                                             
     0    -12.0371562     23  2.500                                             
     0     13.6058260     23  2.500                                             
     1     -3.4971339     23  2.500                                             
     1     13.6058260     23  2.500                                             
     3     -1.3605826      7  2.500                                             
  local pseudopotential read in
  partial core-charges read in
  partial kinetic energy density read in
  atomic valenz-charges read in
  non local Contribution for L=           2  read in
    real space projection operators read in
  non local Contribution for L=           2  read in
    real space projection operators read in
  non local Contribution for L=           0  read in
    real space projection operators read in
  non local Contribution for L=           0  read in
    real space projection operators read in
  non local Contribution for L=           1  read in
    real space projection operators read in
  non local Contribution for L=           1  read in
    real space projection operators read in
    PAW grid and wavefunctions read in
 
   number of l-projection  operators is LMAX  =           6
   number of lm-projection operators is LMMAX =          18
 
 POTCAR:    PAW_PBE I 08Apr2002                   
   VRHFIN =I : s2p5                                                             
   LEXCH  = PE                                                                  
   EATOM  =   315.8678 eV,   23.2156 Ry                                         
                                                                                
   TITEL  = PAW_PBE I 08Apr2002                                                 
   LULTRA =        F    use ultrasoft PP ?                                      
   IUNSCR =        1    unscreen: 0-lin 1-nonlin 2-no                           
   RPACOR =    2.200    partial core radius                                     
   POMASS =  126.904; ZVAL   =    7.000    mass and valenz                      
   RCORE  =    2.300    outmost cutoff radius                                   
   RWIGS  =    2.810; RWIGS  =    1.487    wigner-seitz radius (au A)           
   ENMAX  =  175.647; ENMIN  =  131.735 eV                                      
   ICORE  =        3    local potential                                         
   LCOR   =        T    correct aug charges                                     
   LPAW   =        T    paw PP                                                  
   EAUG   =  370.139                                                            
   DEXC   =    0.000                                                            
   RMAX   =    2.359    core radius for proj-oper                               
   RAUG   =    1.300    factor for augmentation sphere                          
   RDEP   =    2.392    radius for radial grids                                 
   RDEPT  =    2.170    core radius for aug-charge                              
                                                                                
   Atomic configuration                                                         
   13 entries                                                                   
     n  l   j            E        occ.                                          
     1  0  0.50    -32976.3739   2.0000                                         
     2  0  0.50     -5094.5933   2.0000                                         
     2  1  1.50     -4572.0131   6.0000                                         
     3  0  0.50     -1028.2813   2.0000                                         
     3  1  1.50      -859.0250   6.0000                                         
     3  2  2.50      -605.7620  10.0000                                         
     4  0  0.50      -180.5540   2.0000                                         
     4  1  1.50      -127.5306   6.0000                                         
     4  2  2.50       -50.2720  10.0000                                         
     5  0  0.50       -17.4058   2.0000                                         
     5  1  0.50        -7.0851   5.0000                                         
     5  2  1.50        -7.0750   0.0000                                         
     4  3  2.50        -7.0750   0.0000                                         
   Description                                                                  
     l       E           TYP  RCUT    TYP  RCUT                                 
     0    -17.4058016     23  2.300                                             
     0    -18.7663842     23  2.300                                             
     1     -7.0850686     23  2.300                                             
     1     -4.2150896     23  2.300                                             
     2     -7.0750295     23  2.300                                             
     3     -1.3605826     23  2.300                                             
  local pseudopotential read in
  partial core-charges read in
  partial kinetic energy density read in
  atomic valenz-charges read in
  non local Contribution for L=           0  read in
    real space projection operators read in
  non local Contribution for L=           0  read in
    real space projection operators read in
  non local Contribution for L=           1  read in
    real space projection operators read in
  non local Contribution for L=           1  read in
    real space projection operators read in
  non local Contribution for L=           2  read in
    real space projection operators read in
    PAW grid and wavefunctions read in
 
   number of l-projection  operators is LMAX  =           5
   number of lm-projection operators is LMMAX =          13
 

 ----------------------------------------------------------------------------- 
|                                                                             |
|  ADVICE TO THIS USER RUNNING 'VASP/VAMP'   (HEAR YOUR MASTER'S VOICE ...):  |
|                                                                             |
|      You enforced a specific xc-type in the INCAR file,                     |
|      a different type was found on the POTCAR file                          |
|          I HOPE YOU KNOW, WHAT YOU ARE  DOING                               |
|                                                                             |
 ----------------------------------------------------------------------------- 

  PAW_PBE C 08Apr2002                   :
 energy of atom  1       EATOM= -147.1560
 kinetic energy error for atom=    0.0076 (will be added to EATOM!!)
  PAW_PBE N 08Apr2002                   :
 energy of atom  2       EATOM= -264.5486
 kinetic energy error for atom=    0.0138 (will be added to EATOM!!)
  PAW_PBE H 15Jun2001                   :
 energy of atom  3       EATOM=  -12.4884
 kinetic energy error for atom=    0.0020 (will be added to EATOM!!)
  PAW_PBE Pb_d 06Sep2000                :
 energy of atom  4       EATOM=-1661.6185
 kinetic energy error for atom=    0.0047 (will be added to EATOM!!)
  PAW_PBE I 08Apr2002                   :
 energy of atom  5       EATOM= -315.8678
 kinetic energy error for atom=    0.0009 (will be added to EATOM!!)
 
 
 POSCAR: MA-Pb-I (Github)                        
  positions in direct lattice
  No initial velocities read in
 exchange correlation table for  LEXCH =       14
   RHO(1)=    0.500       N(1)  =     2000
   RHO(2)=  100.500       N(2)  =     4000
 


--------------------------------------------------------------------------------------------------------


 ion  position               nearest neighbor table
   1  0.903  1.000  0.996-   3 1.10   5 1.10   4 1.10   2 1.48
   2  0.137  1.000  0.025-   6 1.04   7 1.04   8 1.05   1 1.48
   3  0.865  1.000  0.826-   1 1.10
   4  0.838  0.144  0.072-   1 1.10
   5  0.838  0.857  0.072-   1 1.10
   6  0.208  0.134  0.958-   2 1.04
   7  0.207  0.865  0.958-   2 1.04
   8  0.182  0.000  0.185-   2 1.05
   9  0.476  0.500  0.476-  12 3.07  10 3.15  11 3.15  11 3.15  10 3.18  12 3.23
  10  0.427  0.500  0.973-   9 3.15   9 3.18
  11  0.436  0.000  0.507-   9 3.15   9 3.15
  12  0.963  0.500  0.448-   9 3.07   9 3.23
 
  LATTYP: Found a simple monoclinic cell.
 ALAT       =     6.2901201248
 B/A-ratio  =     0.9974197462
 C/A-ratio  =     1.4105278383
 COS(beta)  =    -0.7044835581
  
  Lattice vectors:
  
 A1 = (  -6.2901201248,   0.0000000000,   0.0000000000)
 A2 = (  -0.0000776940,  -6.2738900180,   0.0000000000)
 A3 = (   6.2504525538,  -0.0001537931,   6.2969150416)


Analysis of symmetry for initial positions (statically):
=====================================================================
 Subroutine PRICEL returns:
 Original cell was already a primitive cell.
 

 Routine SETGRP: Setting up the symmetry group for a 
 simple monoclinic supercell.


 Subroutine GETGRP returns: Found  1 space group operations
 (whereof  1 operations were pure point group operations)
 out of a pool of  4 trial point group operations.


The static configuration has the point symmetry C_1 .


Analysis of symmetry for dynamics (positions and initial velocities):
=====================================================================
 Subroutine PRICEL returns:
 Original cell was already a primitive cell.
 

 Routine SETGRP: Setting up the symmetry group for a 
 simple monoclinic supercell.


 Subroutine GETGRP returns: Found  1 space group operations
 (whereof  1 operations were pure point group operations)
 out of a pool of  4 trial point group operations.


The dynamic configuration has the point symmetry C_1 .


Analysis of structural, dynamic, and magnetic symmetry:
=====================================================================
 Subroutine PRICEL returns:
 Original cell was already a primitive cell.
 

 Routine SETGRP: Setting up the symmetry group for a 
 simple monoclinic supercell.


 Subroutine GETGRP returns: Found  1 space group operations
 (whereof  1 operations were pure point group operations)
 out of a pool of  4 trial point group operations.


The (compounded) configuration has the point symmetry C_1 .


 Subroutine INISYM returns: Found  1 space group operations
 (whereof  1 operations are pure point group operations),
 and found     1 'primitive' translations

 
 
 KPOINTS: Automatically generated mesh            
  k-points in reciprocal lattice
Space group operators:
 irot       det(A)        alpha          n_x          n_y          n_z        tau_x        tau_y        tau_z
    1     1.000000     0.000000     1.000000     0.000000     0.000000     0.000000     0.000000     0.000000


--------------------------------------------------------------------------------------------------------




 Dimension of arrays:
   k-points           NKPTS =    732   k-points in BZ     NKDIM =    732   number of bands    NBANDS=     76
   number of dos      NEDOS =    301   number of ions     NIONS =     12
   non local maximal  LDIM  =      6   non local SUM 2l+1 LMDIM =     18
   total plane-waves  NPLWV = 110592
   max r-space proj   IRMAX =      1   max aug-charges    IRDMAX=  25940
   dimension x,y,z NGX =    48 NGY =   48 NGZ =   48
   dimension x,y,z NGXF=    96 NGYF=   96 NGZF=   96
   support grid    NGXF=    96 NGYF=   96 NGZF=   96
   ions per type =               1   1   6   1   3
 NGX,Y,Z   is equivalent  to a cutoff of  12.69, 12.72, 12.67 a.u.
 NGXF,Y,Z  is equivalent  to a cutoff of  25.37, 25.44, 25.34 a.u.


 I would recommend the setting:
   dimension x,y,z NGX =    46 NGY =   46 NGZ =   46
 SYSTEM =  Name                                    
 POSCAR =  MA-Pb-I (Github)                        

 Startparameter for this run:
   NWRITE =      2    write-flag & timer
   PREC   = accura    normal or accurate (medium, high low for compatibility)
   ISTART =      0    job   : 0-new  1-cont  2-samecut
   ICHARG =     11    charge: 1-file 2-atom 10-const
   ISPIN  =      1    spin polarized calculation?
   LNONCOLLINEAR =      T non collinear calculations
   LSORBIT =      T    spin-orbit coupling
   INIWAV =      1    electr: 0-lowe 1-rand  2-diag
   LASPH  =      F    aspherical Exc in radial PAW
   METAGGA=      F    non-selfconsistent MetaGGA calc.

 Electronic Relaxation 1
   ENCUT  =  500.0 eV  36.75 Ry    6.06 a.u.  11.47 11.44 11.48*2*pi/ulx,y,z
   ENINI  =  500.0     initial cutoff
   ENAUG  =  644.9 eV  augmentation charge cutoff
   NELM   =     60;   NELMIN=  5; NELMDL=  0     # of ELM steps 
   EDIFF  = 0.1E-05   stopping-criterion for ELM
   LREAL  =      F    real-space projection
   NLSPLINE    = F    spline interpolate recip. space projectors
   LCOMPAT=      F    compatible to vasp.4.4
   GGA_COMPAT  = T    GGA compatible to vasp.4.4-vasp.4.6
   LMAXPAW     = -100 max onsite density
   LMAXMIX     =    2 max onsite mixed and CHGCAR
   VOSKOWN=      0    Vosko Wilk Nusair interpolation
   ROPT   =    0.00000   0.00000   0.00000   0.00000
   ROPT   =    0.00000
 Ionic relaxation
   EDIFFG = -.5E-02   stopping-criterion for IOM
   NSW    =      0    number of steps for IOM
   NBLOCK =      1;   KBLOCK =      1    inner block; outer block 
   IBRION =     -1    ionic relax: 0-MD 1-quasi-New 2-CG
   NFREE  =      1    steps in history (QN), initial steepest desc. (CG)
   ISIF   =      3    stress and relaxation
   IWAVPR =     10    prediction:  0-non 1-charg 2-wave 3-comb
   ISYM   =      2    0-nonsym 1-usesym 2-fastsym
   LCORR  =      T    Harris-Foulkes like correction to forces

   POTIM  = 0.5000    time-step for ionic-motion
   TEIN   =    0.0    initial temperature
   TEBEG  =    0.0;   TEEND  =   0.0 temperature during run
   SMASS  =  -3.00    Nose mass-parameter (am)
   estimated Nose-frequenzy (Omega)   =  0.10E-29 period in steps =****** mass=  -0.904E-27a.u.
   SCALEE = 1.0000    scale energy and forces
   NPACO  =    256;   APACO  = 16.0  distance and # of slots for P.C.
   PSTRESS=    0.0 pullay stress

  Mass of Ions in am
   POMASS =  12.01 14.00  1.00207.20126.90
  Ionic Valenz
   ZVAL   =   4.00  5.00  1.00 14.00  7.00
  Atomic Wigner-Seitz radii
   RWIGS  =  -1.00 -1.00 -1.00 -1.00 -1.00
  virtual crystal weights 
   VCA    =   1.00  1.00  1.00  1.00  1.00
   NELECT =      50.0000    total number of electrons
   NUPDOWN=      -1.0000    fix difference up-down

 DOS related values:
   EMIN   =  10.00;   EMAX   =-10.00  energy-range for DOS
   EFERMI =   0.00
   ISMEAR =     0;   SIGMA  =   0.01  broadening in eV -4-tet -1-fermi 0-gaus

 Electronic relaxation 2 (details)
   IALGO  =     38    algorithm
   LDIAG  =      T    sub-space diagonalisation (order eigenvalues)
   LSUBROT=      F    optimize rotation matrix (better conditioning)
   TURBO    =      0    0=normal 1=particle mesh
   IRESTART =      0    0=no restart 2=restart with 2 vectors
   NREBOOT  =      0    no. of reboots
   NMIN     =      0    reboot dimension
   EREF     =   0.00    reference energy to select bands
   IMIX   =      4    mixing-type and parameters
     AMIX     =   0.40;   BMIX     =  1.00
     AMIX_MAG =   1.60;   BMIX_MAG =  1.00
     AMIN     =   0.01
     WC   =   100.;   INIMIX=   1;  MIXPRE=   1;  MAXMIX= -45

 Intra band minimization:
   WEIMIN = 0.0000     energy-eigenvalue tresh-hold
   EBREAK =  0.33E-08  absolut break condition
   DEPER  =   0.30     relativ break condition  

   TIME   =   0.40     timestep for ELM

  volume/ion in A,a.u.               =      20.71       139.75
  Fermi-wavevector in a.u.,A,eV,Ry     =   0.959306  1.812825 12.520994  0.920267
  Thomas-Fermi vector in A             =   2.088490
 
 Write flags
   LWAVE  =      T    write WAVECAR
   LCHARG =      T    write CHGCAR
   LVTOT  =      F    write LOCPOT, total local potential
   LVHAR  =      F    write LOCPOT, Hartree potential only
   LELF   =      F    write electronic localiz. function (ELF)
   LORBIT =     10    0 simple, 1 ext, 2 COOP (PROOUT)


 Dipole corrections
   LMONO  =      F    monopole corrections only (constant potential shift)
   LDIPOL =      F    correct potential (dipole corrections)
   IDIPOL =      0    1-x, 2-y, 3-z, 4-all directions 
   EPSILON=  1.0000000 bulk dielectric constant

 Exchange correlation treatment:
   GGA     =    PS    GGA type
   LEXCH   =    14    internal setting for exchange type
   VOSKOWN=      0    Vosko Wilk Nusair interpolation
   LHFCALC =     F    Hartree Fock is set to
   LHFONE  =     F    Hartree Fock one center treatment
   AEXX    =    0.0000 exact exchange contribution

 Linear response parameters
   LEPSILON=     F    determine dielectric tensor
   LRPA    =     F    only Hartree local field effects (RPA)
   LNABLA  =     F    use nabla operator in PAW spheres
   LVEL    =     F    velocity operator in full k-point grid
   LINTERFAST=   F  fast interpolation
   KINTER  =     0    interpolate to denser k-point grid
   CSHIFT  =0.1000    complex shift for real part using Kramers Kronig
   OMEGAMAX=  -1.0    maximum frequency
   DEG_THRESHOLD= 0.2000000E-02 threshold for treating states as degnerate
   RTIME   =    0.100 relaxation time in fs

 Orbital magnetization related:
   ORBITALMAG=     F  switch on orbital magnetization
   LCHIMAG   =     F  perturbation theory with respect to B field
   DQ        =  0.001000  dq finite difference perturbation B field



--------------------------------------------------------------------------------------------------------


 Static calculation
 charge density and potential remain constant during run
 non collinear spin polarized calculation
 Variant of blocked Davidson
 Davidson routine will perform the subspace rotation
 perform sub-space diagonalisation
    after iterative eigenvector-optimisation
 no mixing
 using additional bands           51
 reciprocal scheme for non local part
 use partial core corrections
 calculate Harris-corrections to forces 
   (improved forces if not selfconsistent)
 use gradient corrections 
 WARNING: stress and forces are not correct
  (second derivative of E(xc) not defined)
 use of overlap-Matrix (Vanderbilt PP)
 Gauss-broadening in eV      SIGMA  =   0.01


--------------------------------------------------------------------------------------------------------


  energy-cutoff  :      500.00
  volume of cell :      248.50
      direct lattice vectors                 reciprocal lattice vectors
     6.290120125  0.000000000  0.000000000     0.158979476 -0.000001969  0.001001495
     0.000077694  6.273890018  0.000000000     0.000000000  0.159390744  0.000003893
    -0.039667571 -0.000153793  6.296915042     0.000000000  0.000000000  0.158807923

  length of vectors
     6.290120125  6.273890018  6.297039986     0.158982630  0.159390744  0.158807923


 
 k-points in units of 2pi/SCALE and weight: Automatically generated mesh            
   0.00000000  0.00000000  0.00000000       0.005
   0.02649658 -0.00000033  0.00016692       0.005
   0.05299316 -0.00000066  0.00033383       0.005
   0.07948974 -0.00000098  0.00050075       0.005
  -0.05299316  0.00000066 -0.00033383       0.005
  -0.02649658  0.00000033 -0.00016692       0.005
   0.00000000  0.02656512  0.00000065       0.005
   0.02649658  0.02656480  0.00016756       0.005
   0.05299316  0.02656447  0.00033448       0.005
   0.07948974  0.02656414  0.00050140       0.005
  -0.05299316  0.02656578 -0.00033318       0.005
  -0.02649658  0.02656545 -0.00016627       0.005
   0.00000000  0.05313025  0.00000130       0.005
   0.02649658  0.05312992  0.00016821       0.005
   0.05299316  0.05312959  0.00033513       0.005
   0.07948974  0.05312926  0.00050205       0.005
  -0.05299316  0.05313090 -0.00033253       0.005
  -0.02649658  0.05313058 -0.00016562       0.005
   0.00000000  0.07969537  0.00000195       0.005
   0.02649658  0.07969504  0.00016886       0.005
   0.05299316  0.07969472  0.00033578       0.005
   0.07948974  0.07969439  0.00050269       0.005
  -0.05299316  0.07969603 -0.00033189       0.005
  -0.02649658  0.07969570 -0.00016497       0.005
   0.00000000 -0.05313025 -0.00000130       0.005
   0.02649658 -0.05313058  0.00016562       0.005
   0.05299316 -0.05313090  0.00033253       0.005
   0.07948974 -0.05313123  0.00049945       0.005
  -0.05299316 -0.05312959 -0.00033513       0.005
  -0.02649658 -0.05312992 -0.00016821       0.005
   0.00000000 -0.02656512 -0.00000065       0.005
   0.02649658 -0.02656545  0.00016627       0.005
   0.05299316 -0.02656578  0.00033318       0.005
   0.07948974 -0.02656611  0.00050010       0.005
  -0.05299316 -0.02656447 -0.00033448       0.005
  -0.02649658 -0.02656480 -0.00016756       0.005
   0.00000000  0.00000000  0.02646799       0.005
   0.02649658 -0.00000033  0.02663490       0.005
   0.05299316 -0.00000066  0.02680182       0.005
   0.07948974 -0.00000098  0.02696873       0.005
  -0.05299316  0.00000066  0.02613416       0.005
  -0.02649658  0.00000033  0.02630107       0.005
   0.00000000  0.02656512  0.02646864       0.005
   0.02649658  0.02656480  0.02663555       0.005
   0.05299316  0.02656447  0.02680247       0.005
   0.07948974  0.02656414  0.02696938       0.005
  -0.05299316  0.02656578  0.02613480       0.005
  -0.02649658  0.02656545  0.02630172       0.005
   0.00000000  0.05313025  0.02646928       0.005
   0.02649658  0.05312992  0.02663620       0.005
   0.05299316  0.05312959  0.02680312       0.005
   0.07948974  0.05312926  0.02697003       0.005
  -0.05299316  0.05313090  0.02613545       0.005
  -0.02649658  0.05313058  0.02630237       0.005
   0.00000000  0.07969537  0.02646993       0.005
   0.02649658  0.07969504  0.02663685       0.005
   0.05299316  0.07969472  0.02680377       0.005
   0.07948974  0.07969439  0.02697068       0.005
  -0.05299316  0.07969603  0.02613610       0.005
  -0.02649658  0.07969570  0.02630302       0.005
   0.00000000 -0.05313025  0.02646669       0.005
   0.02649658 -0.05313058  0.02663361       0.005
   0.05299316 -0.05313090  0.02680052       0.005
   0.07948974 -0.05313123  0.02696744       0.005
  -0.05299316 -0.05312959  0.02613286       0.005
  -0.02649658 -0.05312992  0.02629977       0.005
   0.00000000 -0.02656512  0.02646734       0.005
   0.02649658 -0.02656545  0.02663425       0.005
   0.05299316 -0.02656578  0.02680117       0.005
   0.07948974 -0.02656611  0.02696809       0.005
  -0.05299316 -0.02656447  0.02613351       0.005
  -0.02649658 -0.02656480  0.02630042       0.005
   0.00000000  0.00000000  0.05293597       0.005
   0.02649658 -0.00000033  0.05310289       0.005
   0.05299316 -0.00000066  0.05326981       0.005
   0.07948974 -0.00000098  0.05343672       0.005
  -0.05299316  0.00000066  0.05260214       0.005
  -0.02649658  0.00000033  0.05276906       0.005
   0.00000000  0.02656512  0.05293662       0.005
   0.02649658  0.02656480  0.05310354       0.005
   0.05299316  0.02656447  0.05327045       0.005
   0.07948974  0.02656414  0.05343737       0.005
  -0.05299316  0.02656578  0.05260279       0.005
  -0.02649658  0.02656545  0.05276971       0.005
   0.00000000  0.05313025  0.05293727       0.005
   0.02649658  0.05312992  0.05310419       0.005
   0.05299316  0.05312959  0.05327110       0.005
   0.07948974  0.05312926  0.05343802       0.005
  -0.05299316  0.05313090  0.05260344       0.005
  -0.02649658  0.05313058  0.05277036       0.005
   0.00000000  0.07969537  0.05293792       0.005
   0.02649658  0.07969504  0.05310484       0.005
   0.05299316  0.07969472  0.05327175       0.005
   0.07948974  0.07969439  0.05343867       0.005
  -0.05299316  0.07969603  0.05260409       0.005
  -0.02649658  0.07969570  0.05277100       0.005
   0.00000000 -0.05313025  0.05293468       0.005
   0.02649658 -0.05313058  0.05310159       0.005
   0.05299316 -0.05313090  0.05326851       0.005
   0.07948974 -0.05313123  0.05343542       0.005
  -0.05299316 -0.05312959  0.05260085       0.005
  -0.02649658 -0.05312992  0.05276776       0.005
   0.00000000 -0.02656512  0.05293533       0.005
   0.02649658 -0.02656545  0.05310224       0.005
   0.05299316 -0.02656578  0.05326916       0.005
   0.07948974 -0.02656611  0.05343607       0.005
  -0.05299316 -0.02656447  0.05260149       0.005
  -0.02649658 -0.02656480  0.05276841       0.005
   0.00000000  0.00000000  0.07940396       0.005
   0.02649658 -0.00000033  0.07957088       0.005
   0.05299316 -0.00000066  0.07973779       0.005
   0.07948974 -0.00000098  0.07990471       0.005
  -0.05299316  0.00000066  0.07907013       0.005
  -0.02649658  0.00000033  0.07923705       0.005
   0.00000000  0.02656512  0.07940461       0.005
   0.02649658  0.02656480  0.07957153       0.005
   0.05299316  0.02656447  0.07973844       0.005
   0.07948974  0.02656414  0.07990536       0.005
  -0.05299316  0.02656578  0.07907078       0.005
  -0.02649658  0.02656545  0.07923769       0.005
   0.00000000  0.05313025  0.07940526       0.005
   0.02649658  0.05312992  0.07957218       0.005
   0.05299316  0.05312959  0.07973909       0.005
   0.07948974  0.05312926  0.07990601       0.005
  -0.05299316  0.05313090  0.07907143       0.005
  -0.02649658  0.05313058  0.07923834       0.005
   0.00000000  0.07969537  0.07940591       0.005
   0.02649658  0.07969504  0.07957282       0.005
   0.05299316  0.07969472  0.07973974       0.005
   0.07948974  0.07969439  0.07990666       0.005
  -0.05299316  0.07969603  0.07907208       0.005
  -0.02649658  0.07969570  0.07923899       0.005
   0.00000000 -0.05313025  0.07940266       0.005
   0.02649658 -0.05313058  0.07956958       0.005
   0.05299316 -0.05313090  0.07973650       0.005
   0.07948974 -0.05313123  0.07990341       0.005
  -0.05299316 -0.05312959  0.07906883       0.005
  -0.02649658 -0.05312992  0.07923575       0.005
   0.00000000 -0.02656512  0.07940331       0.005
   0.02649658 -0.02656545  0.07957023       0.005
   0.05299316 -0.02656578  0.07973714       0.005
   0.07948974 -0.02656611  0.07990406       0.005
  -0.05299316 -0.02656447  0.07906948       0.005
  -0.02649658 -0.02656480  0.07923640       0.005
   0.00000000  0.00000000 -0.05293597       0.005
   0.02649658 -0.00000033 -0.05276906       0.005
   0.05299316 -0.00000066 -0.05260214       0.005
   0.07948974 -0.00000098 -0.05243523       0.005
  -0.05299316  0.00000066 -0.05326981       0.005
  -0.02649658  0.00000033 -0.05310289       0.005
   0.00000000  0.02656512 -0.05293533       0.005
   0.02649658  0.02656480 -0.05276841       0.005
   0.05299316  0.02656447 -0.05260149       0.005
   0.07948974  0.02656414 -0.05243458       0.005
  -0.05299316  0.02656578 -0.05326916       0.005
  -0.02649658  0.02656545 -0.05310224       0.005
   0.00000000  0.05313025 -0.05293468       0.005
   0.02649658  0.05312992 -0.05276776       0.005
   0.05299316  0.05312959 -0.05260085       0.005
   0.07948974  0.05312926 -0.05243393       0.005
  -0.05299316  0.05313090 -0.05326851       0.005
  -0.02649658  0.05313058 -0.05310159       0.005
   0.00000000  0.07969537 -0.05293403       0.005
   0.02649658  0.07969504 -0.05276711       0.005
   0.05299316  0.07969472 -0.05260020       0.005
   0.07948974  0.07969439 -0.05243328       0.005
  -0.05299316  0.07969603 -0.05326786       0.005
  -0.02649658  0.07969570 -0.05310094       0.005
   0.00000000 -0.05313025 -0.05293727       0.005
   0.02649658 -0.05313058 -0.05277036       0.005
   0.05299316 -0.05313090 -0.05260344       0.005
   0.07948974 -0.05313123 -0.05243652       0.005
  -0.05299316 -0.05312959 -0.05327110       0.005
  -0.02649658 -0.05312992 -0.05310419       0.005
   0.00000000 -0.02656512 -0.05293662       0.005
   0.02649658 -0.02656545 -0.05276971       0.005
   0.05299316 -0.02656578 -0.05260279       0.005
   0.07948974 -0.02656611 -0.05243588       0.005
  -0.05299316 -0.02656447 -0.05327045       0.005
  -0.02649658 -0.02656480 -0.05310354       0.005
   0.00000000  0.00000000 -0.02646799       0.005
   0.02649658 -0.00000033 -0.02630107       0.005
   0.05299316 -0.00000066 -0.02613416       0.005
   0.07948974 -0.00000098 -0.02596724       0.005
  -0.05299316  0.00000066 -0.02680182       0.005
  -0.02649658  0.00000033 -0.02663490       0.005
   0.00000000  0.02656512 -0.02646734       0.005
   0.02649658  0.02656480 -0.02630042       0.005
   0.05299316  0.02656447 -0.02613351       0.005
   0.07948974  0.02656414 -0.02596659       0.005
  -0.05299316  0.02656578 -0.02680117       0.005
  -0.02649658  0.02656545 -0.02663425       0.005
   0.00000000  0.05313025 -0.02646669       0.005
   0.02649658  0.05312992 -0.02629977       0.005
   0.05299316  0.05312959 -0.02613286       0.005
   0.07948974  0.05312926 -0.02596594       0.005
  -0.05299316  0.05313090 -0.02680052       0.005
  -0.02649658  0.05313058 -0.02663361       0.005
   0.00000000  0.07969537 -0.02646604       0.005
   0.02649658  0.07969504 -0.02629912       0.005
   0.05299316  0.07969472 -0.02613221       0.005
   0.07948974  0.07969439 -0.02596529       0.005
  -0.05299316  0.07969603 -0.02679987       0.005
  -0.02649658  0.07969570 -0.02663296       0.005
   0.00000000 -0.05313025 -0.02646928       0.005
   0.02649658 -0.05313058 -0.02630237       0.005
   0.05299316 -0.05313090 -0.02613545       0.005
   0.07948974 -0.05313123 -0.02596854       0.005
  -0.05299316 -0.05312959 -0.02680312       0.005
  -0.02649658 -0.05312992 -0.02663620       0.005
   0.00000000 -0.02656512 -0.02646864       0.005
   0.02649658 -0.02656545 -0.02630172       0.005
   0.05299316 -0.02656578 -0.02613480       0.005
   0.07948974 -0.02656611 -0.02596789       0.005
  -0.05299316 -0.02656447 -0.02680247       0.005
  -0.02649658 -0.02656480 -0.02663555       0.005
   0.00000000  0.00000000  0.00000000       0.000
   0.00045684  0.00045801  0.00045923       0.000
   0.00091368  0.00091603  0.00091847       0.000
   0.00137051  0.00137404  0.00137770       0.000
   0.00182735  0.00183205  0.00183693       0.000
   0.00228419  0.00229007  0.00229617       0.000
   0.00274103  0.00274808  0.00275540       0.000
   0.00319786  0.00320610  0.00321464       0.000
   0.00365470  0.00366411  0.00367387       0.000
   0.00411154  0.00412212  0.00413310       0.000
   0.00456838  0.00458014  0.00459234       0.000
   0.00502521  0.00503815  0.00505157       0.000
   0.00548205  0.00549616  0.00551080       0.000
   0.00593889  0.00595418  0.00597004       0.000
   0.00639573  0.00641219  0.00642927       0.000
   0.00685256  0.00687021  0.00688851       0.000
   0.00730940  0.00732822  0.00734774       0.000
   0.00776624  0.00778623  0.00780697       0.000
   0.00822308  0.00824425  0.00826621       0.000
   0.00867991  0.00870226  0.00872544       0.000
   0.00913675  0.00916027  0.00918467       0.000
   0.00959359  0.00961829  0.00964391       0.000
   0.01005042  0.01007630  0.01010314       0.000
   0.01050726  0.01053431  0.01056237       0.000
   0.01096410  0.01099233  0.01102161       0.000
   0.01142094  0.01145034  0.01148084       0.000
   0.01187778  0.01190836  0.01194007       0.000
   0.01233461  0.01236637  0.01239931       0.000
   0.01279145  0.01282438  0.01285854       0.000
   0.01324829  0.01328240  0.01331778       0.000
   0.01370513  0.01374041  0.01377701       0.000
   0.01416196  0.01419843  0.01423624       0.000
   0.01461880  0.01465644  0.01469548       0.000
   0.01507564  0.01511445  0.01515471       0.000
   0.01553248  0.01557247  0.01561394       0.000
   0.01598931  0.01603048  0.01607318       0.000
   0.01644615  0.01648849  0.01653241       0.000
   0.01690299  0.01694651  0.01699165       0.000
   0.01735983  0.01740452  0.01745088       0.000
   0.01781667  0.01786254  0.01791011       0.000
   0.01827350  0.01832055  0.01836935       0.000
   0.01873034  0.01877856  0.01882858       0.000
   0.01918718  0.01923658  0.01928781       0.000
   0.01964402  0.01969459  0.01974705       0.000
   0.02010085  0.02015260  0.02020628       0.000
   0.02055769  0.02061062  0.02066551       0.000
   0.02101453  0.02106863  0.02112475       0.000
   0.02147137  0.02152665  0.02158398       0.000
   0.02192820  0.02198466  0.02204321       0.000
   0.02238504  0.02244267  0.02250245       0.000
   0.02284188  0.02290069  0.02296168       0.000
   0.02329872  0.02335870  0.02342092       0.000
   0.02375555  0.02381671  0.02388015       0.000
   0.02421239  0.02427473  0.02433938       0.000
   0.02466923  0.02473274  0.02479862       0.000
   0.02512607  0.02519076  0.02525785       0.000
   0.02558290  0.02564877  0.02571708       0.000
   0.02603974  0.02610678  0.02617632       0.000
   0.02649658  0.02656480  0.02663555       0.000
   0.02695342  0.02702281  0.02709479       0.000
   0.02741025  0.02748082  0.02755402       0.000
   0.02786709  0.02793884  0.02801325       0.000
   0.02832393  0.02839685  0.02847249       0.000
   0.02878077  0.02885486  0.02893172       0.000
   0.02923761  0.02931288  0.02939095       0.000
   0.02969444  0.02977089  0.02985019       0.000
   0.03015128  0.03022891  0.03030942       0.000
   0.03060811  0.03068692  0.03076865       0.000
   0.03106495  0.03114493  0.03122789       0.000
   0.03152179  0.03160294  0.03168712       0.000
   0.03197863  0.03206096  0.03214635       0.000
   0.03243547  0.03251897  0.03260559       0.000
   0.03289231  0.03297699  0.03306482       0.000
   0.03334914  0.03343500  0.03352406       0.000
   0.03380598  0.03389302  0.03398329       0.000
   0.03426282  0.03435103  0.03444253       0.000
   0.03471965  0.03480904  0.03490176       0.000
   0.03517649  0.03526706  0.03536099       0.000
   0.03563333  0.03572507  0.03582022       0.000
   0.03609017  0.03618308  0.03627946       0.000
   0.03654701  0.03664110  0.03673869       0.000
   0.03700384  0.03709911  0.03719793       0.000
   0.03746068  0.03755712  0.03765716       0.000
   0.03791752  0.03801514  0.03811639       0.000
   0.03837436  0.03847315  0.03857563       0.000
   0.03883119  0.03893116  0.03903486       0.000
   0.03928803  0.03938918  0.03949409       0.000
   0.03974487  0.03984719  0.03995333       0.000
   0.04020170  0.04030520  0.04041256       0.000
   0.04065854  0.04076322  0.04087179       0.000
   0.04111538  0.04122123  0.04133103       0.000
   0.04157222  0.04167925  0.04179026       0.000
   0.04202906  0.04213726  0.04224950       0.000
   0.04248590  0.04259528  0.04270873       0.000
   0.04294273  0.04305329  0.04316797       0.000
   0.04339957  0.04351130  0.04362720       0.000
   0.04385641  0.04396932  0.04408643       0.000
   0.04431325  0.04442733  0.04454567       0.000
   0.04477008  0.04488534  0.04500490       0.000
   0.04522692  0.04534336  0.04546413       0.000
   0.04568376  0.04580137  0.04592336       0.000
   0.04614060  0.04625939  0.04638260       0.000
   0.04659743  0.04671740  0.04684183       0.000
   0.04705427  0.04717541  0.04730106       0.000
   0.04751111  0.04763343  0.04776030       0.000
   0.04796795  0.04809144  0.04821953       0.000
   0.04842478  0.04854945  0.04867876       0.000
   0.04888162  0.04900747  0.04913800       0.000
   0.04933846  0.04946548  0.04959723       0.000
   0.04979529  0.04992349  0.05005647       0.000
   0.05025213  0.05038151  0.05051570       0.000
   0.05070897  0.05083952  0.05097494       0.000
   0.05116581  0.05129753  0.05143417       0.000
   0.05162264  0.05175555  0.05189340       0.000
   0.05207948  0.05221356  0.05235264       0.000
   0.05253632  0.05267158  0.05281187       0.000
   0.05299316  0.05312959  0.05327110       0.000
   0.05345000  0.05358761  0.05373034       0.000
   0.05390684  0.05404562  0.05418957       0.000
   0.05436367  0.05450363  0.05464880       0.000
   0.05482050  0.05496164  0.05510803       0.000
   0.05527734  0.05541966  0.05556727       0.000
   0.05573418  0.05587767  0.05602650       0.000
   0.05619102  0.05633569  0.05648574       0.000
   0.05664786  0.05679370  0.05694497       0.000
   0.05710469  0.05725171  0.05740420       0.000
   0.05756153  0.05770973  0.05786344       0.000
   0.05801837  0.05816774  0.05832267       0.000
   0.05847521  0.05862576  0.05878191       0.000
   0.05893205  0.05908377  0.05924114       0.000
   0.05938889  0.05954179  0.05970038       0.000
   0.05984573  0.05999980  0.06015961       0.000
   0.06030256  0.06045781  0.06061884       0.000
   0.06075940  0.06091583  0.06107808       0.000
   0.06121623  0.06137384  0.06153731       0.000
   0.06167307  0.06183185  0.06199654       0.000
   0.06212991  0.06228987  0.06245578       0.000
   0.06258675  0.06274788  0.06291501       0.000
   0.06304358  0.06320589  0.06337424       0.000
   0.06350042  0.06366390  0.06383347       0.000
   0.06395726  0.06412192  0.06429271       0.000
   0.06441410  0.06457993  0.06475194       0.000
   0.06487094  0.06503795  0.06521118       0.000
   0.06532777  0.06549596  0.06567041       0.000
   0.06578461  0.06595398  0.06612965       0.000
   0.06624145  0.06641199  0.06658888       0.000
   0.06669829  0.06687000  0.06704811       0.000
   0.06715512  0.06732802  0.06750735       0.000
   0.06761196  0.06778603  0.06796658       0.000
   0.06806880  0.06824405  0.06842582       0.000
   0.06852564  0.06870206  0.06888505       0.000
   0.06898247  0.06916007  0.06934428       0.000
   0.06943931  0.06961808  0.06980351       0.000
   0.06989615  0.07007610  0.07026275       0.000
   0.07035298  0.07053411  0.07072198       0.000
   0.07080982  0.07099213  0.07118121       0.000
   0.07126666  0.07145014  0.07164045       0.000
   0.07172350  0.07190815  0.07209968       0.000
   0.07218033  0.07236617  0.07255891       0.000
   0.07263717  0.07282418  0.07301815       0.000
   0.07309401  0.07328219  0.07347738       0.000
   0.07355085  0.07374021  0.07393662       0.000
   0.07400769  0.07419822  0.07439585       0.000
   0.07446453  0.07465624  0.07485509       0.000
   0.07492136  0.07511425  0.07531432       0.000
   0.07537820  0.07557226  0.07577355       0.000
   0.07583503  0.07603027  0.07623278       0.000
   0.07629187  0.07648829  0.07669202       0.000
   0.07674871  0.07694630  0.07715125       0.000
   0.07720555  0.07740432  0.07761049       0.000
   0.07766238  0.07786233  0.07806972       0.000
   0.07811922  0.07832034  0.07852895       0.000
   0.07857606  0.07877836  0.07898819       0.000
   0.07903290  0.07923637  0.07944742       0.000
   0.07948974  0.07969439  0.07990666       0.000
   0.07892598  0.07969439  0.07933996       0.000
   0.07836222  0.07969440  0.07877325       0.000
   0.07779847  0.07969441  0.07820656       0.000
   0.07723471  0.07969442  0.07763986       0.000
   0.07667095  0.07969442  0.07707315       0.000
   0.07610720  0.07969443  0.07650646       0.000
   0.07554344  0.07969444  0.07593976       0.000
   0.07497968  0.07969444  0.07537305       0.000
   0.07441593  0.07969445  0.07480636       0.000
   0.07385217  0.07969446  0.07423965       0.000
   0.07328841  0.07969446  0.07367295       0.000
   0.07272465  0.07969447  0.07310626       0.000
   0.07216089  0.07969448  0.07253955       0.000
   0.07159714  0.07969449  0.07197285       0.000
   0.07103338  0.07969449  0.07140616       0.000
   0.07046962  0.07969450  0.07083945       0.000
   0.06990587  0.07969451  0.07027275       0.000
   0.06934211  0.07969451  0.06970606       0.000
   0.06877835  0.07969452  0.06913935       0.000
   0.06821460  0.07969453  0.06857265       0.000
   0.06765084  0.07969453  0.06800596       0.000
   0.06708708  0.07969454  0.06743925       0.000
   0.06652333  0.07969455  0.06687255       0.000
   0.06595957  0.07969456  0.06630586       0.000
   0.06539581  0.07969456  0.06573915       0.000
   0.06483206  0.07969457  0.06517245       0.000
   0.06426830  0.07969458  0.06460576       0.000
   0.06370454  0.07969458  0.06403905       0.000
   0.06314078  0.07969459  0.06347235       0.000
   0.06257703  0.07969460  0.06290566       0.000
   0.06201327  0.07969460  0.06233895       0.000
   0.06144951  0.07969461  0.06177225       0.000
   0.06088576  0.07969462  0.06120556       0.000
   0.06032200  0.07969463  0.06063885       0.000
   0.05975824  0.07969463  0.06007215       0.000
   0.05919449  0.07969464  0.05950546       0.000
   0.05863073  0.07969465  0.05893875       0.000
   0.05806697  0.07969465  0.05837205       0.000
   0.05750322  0.07969466  0.05780536       0.000
   0.05693946  0.07969467  0.05723865       0.000
   0.05637570  0.07969467  0.05667195       0.000
   0.05581195  0.07969468  0.05610526       0.000
   0.05524819  0.07969469  0.05553855       0.000
   0.05468443  0.07969469  0.05497185       0.000
   0.05412068  0.07969470  0.05440516       0.000
   0.05355692  0.07969471  0.05383845       0.000
   0.05299316  0.07969472  0.05327175       0.000
   0.05242940  0.07969472  0.05270505       0.000
   0.05186565  0.07969473  0.05213835       0.000
   0.05130189  0.07969474  0.05157165       0.000
   0.05073813  0.07969474  0.05100496       0.000
   0.05017437  0.07969475  0.05043825       0.000
   0.04961062  0.07969476  0.04987155       0.000
   0.04904686  0.07969476  0.04930485       0.000
   0.04848310  0.07969477  0.04873815       0.000
   0.04791934  0.07969478  0.04817145       0.000
   0.04735559  0.07969479  0.04760475       0.000
   0.04679183  0.07969479  0.04703805       0.000
   0.04622808  0.07969480  0.04647135       0.000
   0.04566432  0.07969481  0.04590465       0.000
   0.04510056  0.07969481  0.04533795       0.000
   0.04453680  0.07969482  0.04477125       0.000
   0.04397305  0.07969483  0.04420456       0.000
   0.04340929  0.07969483  0.04363785       0.000
   0.04284553  0.07969484  0.04307115       0.000
   0.04228177  0.07969485  0.04250445       0.000
   0.04171802  0.07969486  0.04193775       0.000
   0.04115426  0.07969486  0.04137105       0.000
   0.04059050  0.07969487  0.04080435       0.000
   0.04002675  0.07969488  0.04023765       0.000
   0.03946299  0.07969488  0.03967095       0.000
   0.03889923  0.07969489  0.03910425       0.000
   0.03833547  0.07969490  0.03853755       0.000
   0.03777172  0.07969490  0.03797085       0.000
   0.03720796  0.07969491  0.03740415       0.000
   0.03664421  0.07969492  0.03683745       0.000
   0.03608045  0.07969493  0.03627075       0.000
   0.03551669  0.07969493  0.03570405       0.000
   0.03495293  0.07969494  0.03513735       0.000
   0.03438918  0.07969495  0.03457065       0.000
   0.03382542  0.07969495  0.03400395       0.000
   0.03326167  0.07969496  0.03343725       0.000
   0.03269790  0.07969497  0.03287055       0.000
   0.03213415  0.07969497  0.03230385       0.000
   0.03157039  0.07969498  0.03173715       0.000
   0.03100664  0.07969499  0.03117045       0.000
   0.03044288  0.07969500  0.03060375       0.000
   0.02987912  0.07969500  0.03003705       0.000
   0.02931536  0.07969501  0.02947035       0.000
   0.02875161  0.07969502  0.02890365       0.000
   0.02818785  0.07969502  0.02833695       0.000
   0.02762409  0.07969503  0.02777025       0.000
   0.02706034  0.07969504  0.02720355       0.000
   0.02649658  0.07969504  0.02663685       0.000
   0.02593282  0.07969505  0.02607015       0.000
   0.02536906  0.07969506  0.02550345       0.000
   0.02480531  0.07969506  0.02493675       0.000
   0.02424155  0.07969507  0.02437005       0.000
   0.02367780  0.07969508  0.02380335       0.000
   0.02311404  0.07969509  0.02323665       0.000
   0.02255028  0.07969509  0.02266994       0.000
   0.02198653  0.07969510  0.02210325       0.000
   0.02142277  0.07969511  0.02153655       0.000
   0.02085901  0.07969511  0.02096985       0.000
   0.02029525  0.07969512  0.02040315       0.000
   0.01973150  0.07969513  0.01983645       0.000
   0.01916774  0.07969513  0.01926975       0.000
   0.01860398  0.07969514  0.01870305       0.000
   0.01804022  0.07969515  0.01813635       0.000
   0.01747647  0.07969516  0.01756965       0.000
   0.01691271  0.07969516  0.01700295       0.000
   0.01634895  0.07969517  0.01643625       0.000
   0.01578519  0.07969518  0.01586955       0.000
   0.01522144  0.07969518  0.01530285       0.000
   0.01465768  0.07969519  0.01473615       0.000
   0.01409393  0.07969520  0.01416945       0.000
   0.01353017  0.07969520  0.01360275       0.000
   0.01296642  0.07969521  0.01303605       0.000
   0.01240266  0.07969522  0.01246935       0.000
   0.01183890  0.07969523  0.01190265       0.000
   0.01127514  0.07969523  0.01133595       0.000
   0.01071139  0.07969524  0.01076925       0.000
   0.01014763  0.07969525  0.01020255       0.000
   0.00958387  0.07969525  0.00963585       0.000
   0.00902011  0.07969526  0.00906914       0.000
   0.00845636  0.07969527  0.00850245       0.000
   0.00789260  0.07969527  0.00793575       0.000
   0.00732884  0.07969528  0.00736905       0.000
   0.00676508  0.07969529  0.00680235       0.000
   0.00620132  0.07969530  0.00623564       0.000
   0.00563757  0.07969530  0.00566895       0.000
   0.00507381  0.07969531  0.00510225       0.000
   0.00451006  0.07969532  0.00453555       0.000
   0.00394630  0.07969532  0.00396884       0.000
   0.00338255  0.07969533  0.00340215       0.000
   0.00281879  0.07969534  0.00283545       0.000
   0.00225503  0.07969534  0.00226875       0.000
   0.00169127  0.07969535  0.00170205       0.000
   0.00112752  0.07969536  0.00113535       0.000
   0.00056376  0.07969537  0.00056865       0.000
   0.00000000  0.07969537  0.00000195       0.000
   0.00079490  0.07969536  0.00000695       0.000
   0.00158979  0.07969535  0.00001196       0.000
   0.00238469  0.07969534  0.00001697       0.000
   0.00317959  0.07969533  0.00002198       0.000
   0.00397449  0.07969532  0.00002698       0.000
   0.00476938  0.07969531  0.00003199       0.000
   0.00556428  0.07969530  0.00003700       0.000
   0.00635918  0.07969529  0.00004201       0.000
   0.00715408  0.07969528  0.00004701       0.000
   0.00794897  0.07969527  0.00005202       0.000
   0.00874387  0.07969526  0.00005703       0.000
   0.00953877  0.07969525  0.00006204       0.000
   0.01033367  0.07969524  0.00006704       0.000
   0.01112856  0.07969523  0.00007205       0.000
   0.01192346  0.07969522  0.00007706       0.000
   0.01271836  0.07969521  0.00008207       0.000
   0.01351326  0.07969520  0.00008707       0.000
   0.01430815  0.07969519  0.00009208       0.000
   0.01510305  0.07969519  0.00009709       0.000
   0.01589795  0.07969518  0.00010210       0.000
   0.01669284  0.07969517  0.00010710       0.000
   0.01748774  0.07969516  0.00011211       0.000
   0.01828264  0.07969515  0.00011712       0.000
   0.01907754  0.07969514  0.00012213       0.000
   0.01987243  0.07969513  0.00012713       0.000
   0.02066733  0.07969512  0.00013214       0.000
   0.02146223  0.07969511  0.00013715       0.000
   0.02225713  0.07969510  0.00014216       0.000
   0.02305202  0.07969509  0.00014716       0.000
   0.02384692  0.07969508  0.00015217       0.000
   0.02464182  0.07969507  0.00015718       0.000
   0.02543672  0.07969506  0.00016219       0.000
   0.02623161  0.07969505  0.00016719       0.000
   0.02702651  0.07969504  0.00017220       0.000
   0.02782141  0.07969503  0.00017721       0.000
   0.02861630  0.07969502  0.00018222       0.000
   0.02941120  0.07969501  0.00018722       0.000
   0.03020610  0.07969500  0.00019223       0.000
   0.03100100  0.07969499  0.00019724       0.000
   0.03179589  0.07969498  0.00020225       0.000
   0.03259079  0.07969497  0.00020725       0.000
   0.03338569  0.07969496  0.00021226       0.000
   0.03418059  0.07969495  0.00021727       0.000
   0.03497548  0.07969494  0.00022228       0.000
   0.03577038  0.07969493  0.00022728       0.000
   0.03656528  0.07969492  0.00023229       0.000
   0.03736018  0.07969491  0.00023730       0.000
   0.03815507  0.07969490  0.00024231       0.000
   0.03894997  0.07969489  0.00024731       0.000
   0.03974487  0.07969488  0.00025232       0.000
   0.04053977  0.07969487  0.00025733       0.000
   0.04133466  0.07969486  0.00026234       0.000
   0.04212956  0.07969485  0.00026734       0.000
   0.04292446  0.07969484  0.00027235       0.000
   0.04371936  0.07969483  0.00027736       0.000
   0.04451425  0.07969482  0.00028237       0.000
   0.04530915  0.07969481  0.00028737       0.000
   0.04610405  0.07969480  0.00029238       0.000
   0.04689894  0.07969479  0.00029739       0.000
   0.04769384  0.07969478  0.00030239       0.000
   0.04848874  0.07969477  0.00030740       0.000
   0.04928364  0.07969476  0.00031241       0.000
   0.05007853  0.07969475  0.00031742       0.000
   0.05087343  0.07969474  0.00032242       0.000
   0.05166833  0.07969473  0.00032743       0.000
   0.05246322  0.07969472  0.00033244       0.000
   0.05325812  0.07969471  0.00033745       0.000
   0.05405302  0.07969470  0.00034245       0.000
   0.05484792  0.07969469  0.00034746       0.000
   0.05564281  0.07969468  0.00035247       0.000
   0.05643771  0.07969467  0.00035748       0.000
   0.05723261  0.07969466  0.00036248       0.000
   0.05802751  0.07969465  0.00036749       0.000
   0.05882241  0.07969464  0.00037250       0.000
   0.05961730  0.07969463  0.00037751       0.000
   0.06041220  0.07969462  0.00038251       0.000
   0.06120710  0.07969461  0.00038752       0.000
   0.06200199  0.07969460  0.00039253       0.000
   0.06279689  0.07969459  0.00039754       0.000
   0.06359179  0.07969458  0.00040254       0.000
   0.06438669  0.07969457  0.00040755       0.000
   0.06518159  0.07969456  0.00041256       0.000
   0.06597648  0.07969456  0.00041757       0.000
   0.06677138  0.07969455  0.00042257       0.000
   0.06756627  0.07969454  0.00042758       0.000
   0.06836117  0.07969453  0.00043259       0.000
   0.06915607  0.07969452  0.00043760       0.000
   0.06995097  0.07969451  0.00044260       0.000
   0.07074587  0.07969450  0.00044761       0.000
   0.07154076  0.07969449  0.00045262       0.000
   0.07233566  0.07969448  0.00045763       0.000
   0.07313056  0.07969447  0.00046263       0.000
   0.07392546  0.07969446  0.00046764       0.000
   0.07472035  0.07969445  0.00047265       0.000
   0.07551525  0.07969444  0.00047766       0.000
   0.07631015  0.07969443  0.00048266       0.000
   0.07710504  0.07969442  0.00048767       0.000
   0.07789994  0.07969441  0.00049268       0.000
   0.07869484  0.07969440  0.00049769       0.000
   0.07948974  0.07969439  0.00050269       0.000
   0.07948974  0.07969439  0.00129673       0.000
   0.07948974  0.07969439  0.00209077       0.000
   0.07948974  0.07969439  0.00288481       0.000
   0.07948974  0.07969439  0.00367885       0.000
   0.07948974  0.07969439  0.00447289       0.000
   0.07948974  0.07969439  0.00526693       0.000
   0.07948974  0.07969439  0.00606097       0.000
   0.07948974  0.07969439  0.00685501       0.000
   0.07948974  0.07969439  0.00764905       0.000
   0.07948974  0.07969439  0.00844309       0.000
   0.07948974  0.07969439  0.00923713       0.000
   0.07948974  0.07969439  0.01003117       0.000
   0.07948974  0.07969439  0.01082521       0.000
   0.07948974  0.07969439  0.01161925       0.000
   0.07948974  0.07969439  0.01241329       0.000
   0.07948974  0.07969439  0.01320733       0.000
   0.07948974  0.07969439  0.01400137       0.000
   0.07948974  0.07969439  0.01479541       0.000
   0.07948974  0.07969439  0.01558945       0.000
   0.07948974  0.07969439  0.01638348       0.000
   0.07948974  0.07969439  0.01717753       0.000
   0.07948974  0.07969439  0.01797157       0.000
   0.07948974  0.07969439  0.01876560       0.000
   0.07948974  0.07969439  0.01955964       0.000
   0.07948974  0.07969439  0.02035368       0.000
   0.07948974  0.07969439  0.02114772       0.000
   0.07948974  0.07969439  0.02194176       0.000
   0.07948974  0.07969439  0.02273580       0.000
   0.07948974  0.07969439  0.02352984       0.000
   0.07948974  0.07969439  0.02432388       0.000
   0.07948974  0.07969439  0.02511792       0.000
   0.07948974  0.07969439  0.02591196       0.000
   0.07948974  0.07969439  0.02670600       0.000
   0.07948974  0.07969439  0.02750004       0.000
   0.07948974  0.07969439  0.02829408       0.000
   0.07948974  0.07969439  0.02908812       0.000
   0.07948974  0.07969439  0.02988216       0.000
   0.07948974  0.07969439  0.03067620       0.000
   0.07948974  0.07969439  0.03147024       0.000
   0.07948974  0.07969439  0.03226428       0.000
   0.07948974  0.07969439  0.03305832       0.000
   0.07948974  0.07969439  0.03385236       0.000
   0.07948974  0.07969439  0.03464640       0.000
   0.07948974  0.07969439  0.03544044       0.000
   0.07948974  0.07969439  0.03623448       0.000
   0.07948974  0.07969439  0.03702851       0.000
   0.07948974  0.07969439  0.03782256       0.000
   0.07948974  0.07969439  0.03861659       0.000
   0.07948974  0.07969439  0.03941063       0.000
   0.07948974  0.07969439  0.04020467       0.000
   0.07948974  0.07969439  0.04099871       0.000
   0.07948974  0.07969439  0.04179275       0.000
   0.07948974  0.07969439  0.04258679       0.000
   0.07948974  0.07969439  0.04338083       0.000
   0.07948974  0.07969439  0.04417487       0.000
   0.07948974  0.07969439  0.04496891       0.000
   0.07948974  0.07969439  0.04576295       0.000
   0.07948974  0.07969439  0.04655699       0.000
   0.07948974  0.07969439  0.04735103       0.000
   0.07948974  0.07969439  0.04814507       0.000
   0.07948974  0.07969439  0.04893911       0.000
   0.07948974  0.07969439  0.04973315       0.000
   0.07948974  0.07969439  0.05052719       0.000
   0.07948974  0.07969439  0.05132123       0.000
   0.07948974  0.07969439  0.05211527       0.000
   0.07948974  0.07969439  0.05290931       0.000
   0.07948974  0.07969439  0.05370335       0.000
   0.07948974  0.07969439  0.05449739       0.000
   0.07948974  0.07969439  0.05529143       0.000
   0.07948974  0.07969439  0.05608547       0.000
   0.07948974  0.07969439  0.05687951       0.000
   0.07948974  0.07969439  0.05767354       0.000
   0.07948974  0.07969439  0.05846758       0.000
   0.07948974  0.07969439  0.05926163       0.000
   0.07948974  0.07969439  0.06005567       0.000
   0.07948974  0.07969439  0.06084970       0.000
   0.07948974  0.07969439  0.06164374       0.000
   0.07948974  0.07969439  0.06243778       0.000
   0.07948974  0.07969439  0.06323182       0.000
   0.07948974  0.07969439  0.06402586       0.000
   0.07948974  0.07969439  0.06481990       0.000
   0.07948974  0.07969439  0.06561394       0.000
   0.07948974  0.07969439  0.06640798       0.000
   0.07948974  0.07969439  0.06720202       0.000
   0.07948974  0.07969439  0.06799606       0.000
   0.07948974  0.07969439  0.06879010       0.000
   0.07948974  0.07969439  0.06958414       0.000
   0.07948974  0.07969439  0.07037818       0.000
   0.07948974  0.07969439  0.07117222       0.000
   0.07948974  0.07969439  0.07196626       0.000
   0.07948974  0.07969439  0.07276030       0.000
   0.07948974  0.07969439  0.07355434       0.000
   0.07948974  0.07969439  0.07434838       0.000
   0.07948974  0.07969439  0.07514242       0.000
   0.07948974  0.07969439  0.07593646       0.000
   0.07948974  0.07969439  0.07673050       0.000
   0.07948974  0.07969439  0.07752453       0.000
   0.07948974  0.07969439  0.07831857       0.000
   0.07948974  0.07969439  0.07911261       0.000
   0.07948974  0.07969439  0.07990666       0.000
 
 k-points in reciprocal lattice and weights: Automatically generated mesh            
   0.00000000  0.00000000  0.00000000       0.005
   0.16666667  0.00000000  0.00000000       0.005
   0.33333333  0.00000000  0.00000000       0.005
   0.50000000  0.00000000  0.00000000       0.005
  -0.33333333  0.00000000  0.00000000       0.005
  -0.16666667  0.00000000  0.00000000       0.005
   0.00000000  0.16666667  0.00000000       0.005
   0.16666667  0.16666667  0.00000000       0.005
   0.33333333  0.16666667  0.00000000       0.005
   0.50000000  0.16666667  0.00000000       0.005
  -0.33333333  0.16666667  0.00000000       0.005
  -0.16666667  0.16666667  0.00000000       0.005
   0.00000000  0.33333333  0.00000000       0.005
   0.16666667  0.33333333  0.00000000       0.005
   0.33333333  0.33333333  0.00000000       0.005
   0.50000000  0.33333333  0.00000000       0.005
  -0.33333333  0.33333333  0.00000000       0.005
  -0.16666667  0.33333333  0.00000000       0.005
   0.00000000  0.50000000  0.00000000       0.005
   0.16666667  0.50000000  0.00000000       0.005
   0.33333333  0.50000000  0.00000000       0.005
   0.50000000  0.50000000  0.00000000       0.005
  -0.33333333  0.50000000  0.00000000       0.005
  -0.16666667  0.50000000  0.00000000       0.005
   0.00000000 -0.33333333  0.00000000       0.005
   0.16666667 -0.33333333  0.00000000       0.005
   0.33333333 -0.33333333  0.00000000       0.005
   0.50000000 -0.33333333  0.00000000       0.005
  -0.33333333 -0.33333333  0.00000000       0.005
  -0.16666667 -0.33333333  0.00000000       0.005
   0.00000000 -0.16666667  0.00000000       0.005
   0.16666667 -0.16666667  0.00000000       0.005
   0.33333333 -0.16666667  0.00000000       0.005
   0.50000000 -0.16666667  0.00000000       0.005
  -0.33333333 -0.16666667  0.00000000       0.005
  -0.16666667 -0.16666667  0.00000000       0.005
   0.00000000  0.00000000  0.16666667       0.005
   0.16666667  0.00000000  0.16666667       0.005
   0.33333333  0.00000000  0.16666667       0.005
   0.50000000  0.00000000  0.16666667       0.005
  -0.33333333  0.00000000  0.16666667       0.005
  -0.16666667  0.00000000  0.16666667       0.005
   0.00000000  0.16666667  0.16666667       0.005
   0.16666667  0.16666667  0.16666667       0.005
   0.33333333  0.16666667  0.16666667       0.005
   0.50000000  0.16666667  0.16666667       0.005
  -0.33333333  0.16666667  0.16666667       0.005
  -0.16666667  0.16666667  0.16666667       0.005
   0.00000000  0.33333333  0.16666667       0.005
   0.16666667  0.33333333  0.16666667       0.005
   0.33333333  0.33333333  0.16666667       0.005
   0.50000000  0.33333333  0.16666667       0.005
  -0.33333333  0.33333333  0.16666667       0.005
  -0.16666667  0.33333333  0.16666667       0.005
   0.00000000  0.50000000  0.16666667       0.005
   0.16666667  0.50000000  0.16666667       0.005
   0.33333333  0.50000000  0.16666667       0.005
   0.50000000  0.50000000  0.16666667       0.005
  -0.33333333  0.50000000  0.16666667       0.005
  -0.16666667  0.50000000  0.16666667       0.005
   0.00000000 -0.33333333  0.16666667       0.005
   0.16666667 -0.33333333  0.16666667       0.005
   0.33333333 -0.33333333  0.16666667       0.005
   0.50000000 -0.33333333  0.16666667       0.005
  -0.33333333 -0.33333333  0.16666667       0.005
  -0.16666667 -0.33333333  0.16666667       0.005
   0.00000000 -0.16666667  0.16666667       0.005
   0.16666667 -0.16666667  0.16666667       0.005
   0.33333333 -0.16666667  0.16666667       0.005
   0.50000000 -0.16666667  0.16666667       0.005
  -0.33333333 -0.16666667  0.16666667       0.005
  -0.16666667 -0.16666667  0.16666667       0.005
   0.00000000  0.00000000  0.33333333       0.005
   0.16666667  0.00000000  0.33333333       0.005
   0.33333333  0.00000000  0.33333333       0.005
   0.50000000  0.00000000  0.33333333       0.005
  -0.33333333  0.00000000  0.33333333       0.005
  -0.16666667  0.00000000  0.33333333       0.005
   0.00000000  0.16666667  0.33333333       0.005
   0.16666667  0.16666667  0.33333333       0.005
   0.33333333  0.16666667  0.33333333       0.005
   0.50000000  0.16666667  0.33333333       0.005
  -0.33333333  0.16666667  0.33333333       0.005
  -0.16666667  0.16666667  0.33333333       0.005
   0.00000000  0.33333333  0.33333333       0.005
   0.16666667  0.33333333  0.33333333       0.005
   0.33333333  0.33333333  0.33333333       0.005
   0.50000000  0.33333333  0.33333333       0.005
  -0.33333333  0.33333333  0.33333333       0.005
  -0.16666667  0.33333333  0.33333333       0.005
   0.00000000  0.50000000  0.33333333       0.005
   0.16666667  0.50000000  0.33333333       0.005
   0.33333333  0.50000000  0.33333333       0.005
   0.50000000  0.50000000  0.33333333       0.005
  -0.33333333  0.50000000  0.33333333       0.005
  -0.16666667  0.50000000  0.33333333       0.005
   0.00000000 -0.33333333  0.33333333       0.005
   0.16666667 -0.33333333  0.33333333       0.005
   0.33333333 -0.33333333  0.33333333       0.005
   0.50000000 -0.33333333  0.33333333       0.005
  -0.33333333 -0.33333333  0.33333333       0.005
  -0.16666667 -0.33333333  0.33333333       0.005
   0.00000000 -0.16666667  0.33333333       0.005
   0.16666667 -0.16666667  0.33333333       0.005
   0.33333333 -0.16666667  0.33333333       0.005
   0.50000000 -0.16666667  0.33333333       0.005
  -0.33333333 -0.16666667  0.33333333       0.005
  -0.16666667 -0.16666667  0.33333333       0.005
   0.00000000  0.00000000  0.50000000       0.005
   0.16666667  0.00000000  0.50000000       0.005
   0.33333333  0.00000000  0.50000000       0.005
   0.50000000  0.00000000  0.50000000       0.005
  -0.33333333  0.00000000  0.50000000       0.005
  -0.16666667  0.00000000  0.50000000       0.005
   0.00000000  0.16666667  0.50000000       0.005
   0.16666667  0.16666667  0.50000000       0.005
   0.33333333  0.16666667  0.50000000       0.005
   0.50000000  0.16666667  0.50000000       0.005
  -0.33333333  0.16666667  0.50000000       0.005
  -0.16666667  0.16666667  0.50000000       0.005
   0.00000000  0.33333333  0.50000000       0.005
   0.16666667  0.33333333  0.50000000       0.005
   0.33333333  0.33333333  0.50000000       0.005
   0.50000000  0.33333333  0.50000000       0.005
  -0.33333333  0.33333333  0.50000000       0.005
  -0.16666667  0.33333333  0.50000000       0.005
   0.00000000  0.50000000  0.50000000       0.005
   0.16666667  0.50000000  0.50000000       0.005
   0.33333333  0.50000000  0.50000000       0.005
   0.50000000  0.50000000  0.50000000       0.005
  -0.33333333  0.50000000  0.50000000       0.005
  -0.16666667  0.50000000  0.50000000       0.005
   0.00000000 -0.33333333  0.50000000       0.005
   0.16666667 -0.33333333  0.50000000       0.005
   0.33333333 -0.33333333  0.50000000       0.005
   0.50000000 -0.33333333  0.50000000       0.005
  -0.33333333 -0.33333333  0.50000000       0.005
  -0.16666667 -0.33333333  0.50000000       0.005
   0.00000000 -0.16666667  0.50000000       0.005
   0.16666667 -0.16666667  0.50000000       0.005
   0.33333333 -0.16666667  0.50000000       0.005
   0.50000000 -0.16666667  0.50000000       0.005
  -0.33333333 -0.16666667  0.50000000       0.005
  -0.16666667 -0.16666667  0.50000000       0.005
   0.00000000  0.00000000 -0.33333333       0.005
   0.16666667  0.00000000 -0.33333333       0.005
   0.33333333  0.00000000 -0.33333333       0.005
   0.50000000  0.00000000 -0.33333333       0.005
  -0.33333333  0.00000000 -0.33333333       0.005
  -0.16666667  0.00000000 -0.33333333       0.005
   0.00000000  0.16666667 -0.33333333       0.005
   0.16666667  0.16666667 -0.33333333       0.005
   0.33333333  0.16666667 -0.33333333       0.005
   0.50000000  0.16666667 -0.33333333       0.005
  -0.33333333  0.16666667 -0.33333333       0.005
  -0.16666667  0.16666667 -0.33333333       0.005
   0.00000000  0.33333333 -0.33333333       0.005
   0.16666667  0.33333333 -0.33333333       0.005
   0.33333333  0.33333333 -0.33333333       0.005
   0.50000000  0.33333333 -0.33333333       0.005
  -0.33333333  0.33333333 -0.33333333       0.005
  -0.16666667  0.33333333 -0.33333333       0.005
[...]
      1.13753     -0.00001      1.16715        -0.003898      0.000143      0.005568
      2.97634      3.13707      2.99511         0.021947      0.000007     -0.001623
      2.64610      3.13606      6.12444         0.000931      0.000061     -0.002072
      2.72152      0.00020      3.18965         0.000991      0.000003      0.002757
      6.03902      3.13830      2.81942        -0.025787     -0.000052     -0.007508
 -----------------------------------------------------------------------------------
    total drift:                               -0.000331     -0.000041     -0.000320


--------------------------------------------------------------------------------------------------------



  FREE ENERGIE OF THE ION-ELECTRON SYSTEM (eV)
  ---------------------------------------------------
  free  energy   TOTEN  =       -52.90794302 eV

  energy  without entropy=      -52.90794302  energy(sigma->0) =      -52.90794302
 


--------------------------------------------------------------------------------------------------------


    POTLOK:  cpu time    0.1200: real time    0.1187


--------------------------------------------------------------------------------------------------------


 writing wavefunctions
     LOOP+:  cpu time 1720.5235: real time 1753.2046
    4ORBIT:  cpu time    0.0000: real time    0.0000

 Spin-Orbit-Coupling matrix elements

 Ion:    1  E_soc:     -0.0000134
 l=   1
     0.0000000    -0.0000027    -0.0000020
    -0.0000027     0.0000000    -0.0000020
    -0.0000020    -0.0000020     0.0000000
 l=   2
     0.0000000     0.0000000     0.0000000     0.0000000     0.0000000
     0.0000000     0.0000000     0.0000000     0.0000000     0.0000000
     0.0000000     0.0000000     0.0000000     0.0000000     0.0000000
     0.0000000     0.0000000     0.0000000     0.0000000     0.0000000
     0.0000000     0.0000000     0.0000000     0.0000000     0.0000000
 l=   3
     0.0000000     0.0000000     0.0000000     0.0000000     0.0000000     0.0000000     0.0000000
     0.0000000     0.0000000     0.0000000     0.0000000     0.0000000     0.0000000     0.0000000
     0.0000000     0.0000000     0.0000000     0.0000000     0.0000000     0.0000000     0.0000000
     0.0000000     0.0000000     0.0000000     0.0000000     0.0000000     0.0000000     0.0000000
     0.0000000     0.0000000     0.0000000     0.0000000     0.0000000     0.0000000     0.0000000
     0.0000000     0.0000000     0.0000000     0.0000000     0.0000000     0.0000000     0.0000000
     0.0000000     0.0000000     0.0000000     0.0000000     0.0000000     0.0000000     0.0000000

 Ion:    2  E_soc:     -0.0000488
 l=   1
     0.0000000    -0.0000075    -0.0000083
    -0.0000075     0.0000000    -0.0000086
    -0.0000083    -0.0000086     0.0000000
 l=   2
     0.0000000     0.0000000     0.0000000     0.0000000     0.0000000
     0.0000000     0.0000000     0.0000000     0.0000000     0.0000000
     0.0000000     0.0000000     0.0000000     0.0000000     0.0000000
     0.0000000     0.0000000     0.0000000     0.0000000     0.0000000
     0.0000000     0.0000000     0.0000000     0.0000000     0.0000000
 l=   3
     0.0000000     0.0000000     0.0000000     0.0000000     0.0000000     0.0000000     0.0000000
     0.0000000     0.0000000     0.0000000     0.0000000     0.0000000     0.0000000     0.0000000
     0.0000000     0.0000000     0.0000000     0.0000000     0.0000000     0.0000000     0.0000000
     0.0000000     0.0000000     0.0000000     0.0000000     0.0000000     0.0000000     0.0000000
     0.0000000     0.0000000     0.0000000     0.0000000     0.0000000     0.0000000     0.0000000
     0.0000000     0.0000000     0.0000000     0.0000000     0.0000000     0.0000000     0.0000000
     0.0000000     0.0000000     0.0000000     0.0000000     0.0000000     0.0000000     0.0000000

 Ion:    3  E_soc:     -0.0000000
 l=   1
     0.0000000    -0.0000000    -0.0000000
    -0.0000000     0.0000000    -0.0000000
    -0.0000000    -0.0000000     0.0000000
 l=   2
     0.0000000     0.0000000     0.0000000     0.0000000     0.0000000
     0.0000000     0.0000000     0.0000000     0.0000000     0.0000000
     0.0000000     0.0000000     0.0000000     0.0000000     0.0000000
     0.0000000     0.0000000     0.0000000     0.0000000     0.0000000
     0.0000000     0.0000000     0.0000000     0.0000000     0.0000000
 l=   3
     0.0000000     0.0000000     0.0000000     0.0000000     0.0000000     0.0000000     0.0000000
     0.0000000     0.0000000     0.0000000     0.0000000     0.0000000     0.0000000     0.0000000
     0.0000000     0.0000000     0.0000000     0.0000000     0.0000000     0.0000000     0.0000000
     0.0000000     0.0000000     0.0000000     0.0000000     0.0000000     0.0000000     0.0000000
     0.0000000     0.0000000     0.0000000     0.0000000     0.0000000     0.0000000     0.0000000
     0.0000000     0.0000000     0.0000000     0.0000000     0.0000000     0.0000000     0.0000000
     0.0000000     0.0000000     0.0000000     0.0000000     0.0000000     0.0000000     0.0000000

 Ion:    4  E_soc:     -0.0000000
 l=   1
     0.0000000    -0.0000000    -0.0000000
    -0.0000000     0.0000000    -0.0000000
    -0.0000000    -0.0000000     0.0000000
 l=   2
     0.0000000     0.0000000     0.0000000     0.0000000     0.0000000
     0.0000000     0.0000000     0.0000000     0.0000000     0.0000000
     0.0000000     0.0000000     0.0000000     0.0000000     0.0000000
     0.0000000     0.0000000     0.0000000     0.0000000     0.0000000
     0.0000000     0.0000000     0.0000000     0.0000000     0.0000000
 l=   3
     0.0000000     0.0000000     0.0000000     0.0000000     0.0000000     0.0000000     0.0000000
     0.0000000     0.0000000     0.0000000     0.0000000     0.0000000     0.0000000     0.0000000
     0.0000000     0.0000000     0.0000000     0.0000000     0.0000000     0.0000000     0.0000000
     0.0000000     0.0000000     0.0000000     0.0000000     0.0000000     0.0000000     0.0000000
     0.0000000     0.0000000     0.0000000     0.0000000     0.0000000     0.0000000     0.0000000
     0.0000000     0.0000000     0.0000000     0.0000000     0.0000000     0.0000000     0.0000000
     0.0000000     0.0000000     0.0000000     0.0000000     0.0000000     0.0000000     0.0000000

 Ion:    5  E_soc:     -0.0000000
 l=   1
     0.0000000    -0.0000000    -0.0000000
    -0.0000000     0.0000000    -0.0000000
    -0.0000000    -0.0000000     0.0000000
 l=   2
     0.0000000     0.0000000     0.0000000     0.0000000     0.0000000
     0.0000000     0.0000000     0.0000000     0.0000000     0.0000000
     0.0000000     0.0000000     0.0000000     0.0000000     0.0000000
     0.0000000     0.0000000     0.0000000     0.0000000     0.0000000
     0.0000000     0.0000000     0.0000000     0.0000000     0.0000000
 l=   3
     0.0000000     0.0000000     0.0000000     0.0000000     0.0000000     0.0000000     0.0000000
     0.0000000     0.0000000     0.0000000     0.0000000     0.0000000     0.0000000     0.0000000
     0.0000000     0.0000000     0.0000000     0.0000000     0.0000000     0.0000000     0.0000000
     0.0000000     0.0000000     0.0000000     0.0000000     0.0000000     0.0000000     0.0000000
     0.0000000     0.0000000     0.0000000     0.0000000     0.0000000     0.0000000     0.0000000
     0.0000000     0.0000000     0.0000000     0.0000000     0.0000000     0.0000000     0.0000000
     0.0000000     0.0000000     0.0000000     0.0000000     0.0000000     0.0000000     0.0000000

 Ion:    6  E_soc:     -0.0000001
 l=   1
     0.0000000    -0.0000000    -0.0000000
    -0.0000000     0.0000000    -0.0000000
    -0.0000000    -0.0000000     0.0000000
 l=   2
     0.0000000     0.0000000     0.0000000     0.0000000     0.0000000
     0.0000000     0.0000000     0.0000000     0.0000000     0.0000000
     0.0000000     0.0000000     0.0000000     0.0000000     0.0000000
     0.0000000     0.0000000     0.0000000     0.0000000     0.0000000
     0.0000000     0.0000000     0.0000000     0.0000000     0.0000000
 l=   3
     0.0000000     0.0000000     0.0000000     0.0000000     0.0000000     0.0000000     0.0000000
     0.0000000     0.0000000     0.0000000     0.0000000     0.0000000     0.0000000     0.0000000
     0.0000000     0.0000000     0.0000000     0.0000000     0.0000000     0.0000000     0.0000000
     0.0000000     0.0000000     0.0000000     0.0000000     0.0000000     0.0000000     0.0000000
     0.0000000     0.0000000     0.0000000     0.0000000     0.0000000     0.0000000     0.0000000
     0.0000000     0.0000000     0.0000000     0.0000000     0.0000000     0.0000000     0.0000000
     0.0000000     0.0000000     0.0000000     0.0000000     0.0000000     0.0000000     0.0000000

 Ion:    7  E_soc:     -0.0000001
 l=   1
     0.0000000    -0.0000000    -0.0000000
    -0.0000000     0.0000000    -0.0000000
    -0.0000000    -0.0000000     0.0000000
 l=   2
     0.0000000     0.0000000     0.0000000     0.0000000     0.0000000
     0.0000000     0.0000000     0.0000000     0.0000000     0.0000000
     0.0000000     0.0000000     0.0000000     0.0000000     0.0000000
     0.0000000     0.0000000     0.0000000     0.0000000     0.0000000
     0.0000000     0.0000000     0.0000000     0.0000000     0.0000000
 l=   3
     0.0000000     0.0000000     0.0000000     0.0000000     0.0000000     0.0000000     0.0000000
     0.0000000     0.0000000     0.0000000     0.0000000     0.0000000     0.0000000     0.0000000
     0.0000000     0.0000000     0.0000000     0.0000000     0.0000000     0.0000000     0.0000000
     0.0000000     0.0000000     0.0000000     0.0000000     0.0000000     0.0000000     0.0000000
     0.0000000     0.0000000     0.0000000     0.0000000     0.0000000     0.0000000     0.0000000
     0.0000000     0.0000000     0.0000000     0.0000000     0.0000000     0.0000000     0.0000000
     0.0000000     0.0000000     0.0000000     0.0000000     0.0000000     0.0000000     0.0000000

 Ion:    8  E_soc:     -0.0000001
 l=   1
     0.0000000    -0.0000000    -0.0000000
    -0.0000000     0.0000000    -0.0000000
    -0.0000000    -0.0000000     0.0000000
 l=   2
     0.0000000     0.0000000     0.0000000     0.0000000     0.0000000
     0.0000000     0.0000000     0.0000000     0.0000000     0.0000000
     0.0000000     0.0000000     0.0000000     0.0000000     0.0000000
     0.0000000     0.0000000     0.0000000     0.0000000     0.0000000
     0.0000000     0.0000000     0.0000000     0.0000000     0.0000000
 l=   3
     0.0000000     0.0000000     0.0000000     0.0000000     0.0000000     0.0000000     0.0000000
     0.0000000     0.0000000     0.0000000     0.0000000     0.0000000     0.0000000     0.0000000
     0.0000000     0.0000000     0.0000000     0.0000000     0.0000000     0.0000000     0.0000000
     0.0000000     0.0000000     0.0000000     0.0000000     0.0000000     0.0000000     0.0000000
     0.0000000     0.0000000     0.0000000     0.0000000     0.0000000     0.0000000     0.0000000
     0.0000000     0.0000000     0.0000000     0.0000000     0.0000000     0.0000000     0.0000000
     0.0000000     0.0000000     0.0000000     0.0000000     0.0000000     0.0000000     0.0000000

 Ion:    9  E_soc:     -0.8898750
 l=   1
     0.0000000    -0.0781257    -0.0820344
    -0.0781257     0.0000000    -0.0817011
    -0.0820344    -0.0817011     0.0000000
 l=   2
     0.0000000    -0.0134360     0.0000000    -0.0134081    -0.0542561
    -0.0134360     0.0000000    -0.0406946    -0.0134465    -0.0135708
     0.0000000    -0.0406946     0.0000000    -0.0406952     0.0000000
    -0.0134081    -0.0134465    -0.0406952     0.0000000    -0.0135691
    -0.0542561    -0.0135708     0.0000000    -0.0135691     0.0000000
 l=   3
     0.0000000     0.0000000     0.0000000     0.0000000     0.0000000     0.0000000     0.0000000
     0.0000000     0.0000000     0.0000000     0.0000000     0.0000000     0.0000000     0.0000000
     0.0000000     0.0000000     0.0000000     0.0000000     0.0000000     0.0000000     0.0000000
     0.0000000     0.0000000     0.0000000     0.0000000     0.0000000     0.0000000     0.0000000
     0.0000000     0.0000000     0.0000000     0.0000000     0.0000000     0.0000000     0.0000000
     0.0000000     0.0000000     0.0000000     0.0000000     0.0000000     0.0000000     0.0000000
     0.0000000     0.0000000     0.0000000     0.0000000     0.0000000     0.0000000     0.0000000

 Ion:   10  E_soc:     -0.2767699
 l=   1
     0.0000000    -0.0472425    -0.0429424
    -0.0472425     0.0000000    -0.0482201
    -0.0429424    -0.0482201     0.0000000
 l=   2
     0.0000000    -0.0000031     0.0000000    -0.0000038    -0.0000069
    -0.0000031     0.0000000     0.0000234    -0.0000101    -0.0000046
     0.0000000     0.0000234     0.0000000     0.0000297     0.0000000
    -0.0000038    -0.0000101     0.0000297     0.0000000    -0.0000045
    -0.0000069    -0.0000046     0.0000000    -0.0000045     0.0000000
 l=   3
     0.0000000     0.0000000     0.0000000     0.0000000     0.0000000     0.0000000     0.0000000
     0.0000000     0.0000000     0.0000000     0.0000000     0.0000000     0.0000000     0.0000000
     0.0000000     0.0000000     0.0000000     0.0000000     0.0000000     0.0000000     0.0000000
     0.0000000     0.0000000     0.0000000     0.0000000     0.0000000     0.0000000     0.0000000
     0.0000000     0.0000000     0.0000000     0.0000000     0.0000000     0.0000000     0.0000000
     0.0000000     0.0000000     0.0000000     0.0000000     0.0000000     0.0000000     0.0000000
     0.0000000     0.0000000     0.0000000     0.0000000     0.0000000     0.0000000     0.0000000

 Ion:   11  E_soc:     -0.2778471
 l=   1
     0.0000000    -0.0477969    -0.0482628
    -0.0477969     0.0000000    -0.0428882
    -0.0482628    -0.0428882     0.0000000
 l=   2
     0.0000000    -0.0000101     0.0000000    -0.0000035     0.0000260
    -0.0000101     0.0000000     0.0000057    -0.0000026     0.0000139
     0.0000000     0.0000057     0.0000000    -0.0000042     0.0000000
    -0.0000035    -0.0000026    -0.0000042     0.0000000    -0.0000009
     0.0000260     0.0000139     0.0000000    -0.0000009     0.0000000
 l=   3
     0.0000000     0.0000000     0.0000000     0.0000000     0.0000000     0.0000000     0.0000000
     0.0000000     0.0000000     0.0000000     0.0000000     0.0000000     0.0000000     0.0000000
     0.0000000     0.0000000     0.0000000     0.0000000     0.0000000     0.0000000     0.0000000
     0.0000000     0.0000000     0.0000000     0.0000000     0.0000000     0.0000000     0.0000000
     0.0000000     0.0000000     0.0000000     0.0000000     0.0000000     0.0000000     0.0000000
     0.0000000     0.0000000     0.0000000     0.0000000     0.0000000     0.0000000     0.0000000
     0.0000000     0.0000000     0.0000000     0.0000000     0.0000000     0.0000000     0.0000000

 Ion:   12  E_soc:     -0.2864314
 l=   1
     0.0000000    -0.0428156    -0.0500274
    -0.0428156     0.0000000    -0.0504004
    -0.0500274    -0.0504004     0.0000000
 l=   2
     0.0000000    -0.0000023     0.0000000    -0.0000087     0.0000227
    -0.0000023     0.0000000    -0.0000027    -0.0000024    -0.0000011
     0.0000000    -0.0000027     0.0000000     0.0000071     0.0000000
    -0.0000087    -0.0000024     0.0000071     0.0000000     0.0000152
     0.0000227    -0.0000011     0.0000000     0.0000152     0.0000000
 l=   3
     0.0000000     0.0000000     0.0000000     0.0000000     0.0000000     0.0000000     0.0000000
     0.0000000     0.0000000     0.0000000     0.0000000     0.0000000     0.0000000     0.0000000
     0.0000000     0.0000000     0.0000000     0.0000000     0.0000000     0.0000000     0.0000000
     0.0000000     0.0000000     0.0000000     0.0000000     0.0000000     0.0000000     0.0000000
     0.0000000     0.0000000     0.0000000     0.0000000     0.0000000     0.0000000     0.0000000
     0.0000000     0.0000000     0.0000000     0.0000000     0.0000000     0.0000000     0.0000000
     0.0000000     0.0000000     0.0000000     0.0000000     0.0000000     0.0000000     0.0000000
 


 total charge     
 
# of ion     s       p       d       tot
----------------------------------------
  1        0.836   1.770   0.000   2.606
  2        1.218   2.784   0.000   4.001
  3        0.628   0.045   0.000   0.673
  4        0.627   0.045   0.000   0.672
  5        0.627   0.045   0.000   0.672
  6        0.594   0.078   0.000   0.672
  7        0.594   0.078   0.000   0.672
  8        0.590   0.078   0.000   0.667
  9        1.461   0.554   9.840  11.854
 10        1.507   2.785   0.009   4.301
 11        1.507   2.785   0.009   4.301
 12        1.508   2.773   0.008   4.289
------------------------------------------------
tot       11.696  13.819   9.867  35.382
 


 magnetization (x)
 
# of ion     s       p       d       tot
----------------------------------------
  1       -0.000  -0.000   0.000  -0.000
  2       -0.000  -0.000   0.000  -0.000
  3        0.000  -0.000   0.000   0.000
  4        0.000  -0.000   0.000   0.000
  5        0.000  -0.000   0.000   0.000
  6        0.000   0.000   0.000   0.000
  7        0.000   0.000   0.000   0.000
  8        0.000   0.000   0.000   0.000
  9       -0.000  -0.000  -0.000  -0.000
 10        0.000  -0.000   0.000  -0.000
 11        0.000  -0.000   0.000  -0.000
 12        0.000   0.000   0.000   0.000
------------------------------------------------
tot        0.000  -0.000  -0.000  -0.000
 


 magnetization (y)
 
# of ion     s       p       d       tot
----------------------------------------
  1       -0.000  -0.000   0.000  -0.000
  2       -0.000  -0.000   0.000  -0.000
  3        0.000  -0.000   0.000   0.000
  4        0.000  -0.000   0.000   0.000
  5        0.000  -0.000   0.000   0.000
  6        0.000   0.000   0.000   0.000
  7        0.000   0.000   0.000   0.000
  8        0.000   0.000   0.000   0.000
  9       -0.000  -0.000  -0.000  -0.000
 10        0.000  -0.000   0.000  -0.000
 11        0.000  -0.000   0.000  -0.000
 12        0.000   0.000   0.000   0.000
------------------------------------------------
tot        0.000  -0.000  -0.000  -0.000
 


 magnetization (z)
 
# of ion     s       p       d       tot
----------------------------------------
  1       -0.000  -0.000   0.000  -0.000
  2       -0.000  -0.000   0.000  -0.000
  3        0.000  -0.000   0.000   0.000
  4        0.000  -0.000   0.000   0.000
  5        0.000  -0.000   0.000   0.000
  6        0.000   0.000   0.000   0.000
  7        0.000   0.000   0.000   0.000
  8        0.000   0.000   0.000   0.000
  9       -0.000  -0.000  -0.000  -0.000
 10        0.000  -0.000   0.000  -0.000
 11        0.000  -0.000  -0.000  -0.000
 12        0.000  -0.000   0.000   0.000
------------------------------------------------
tot        0.000  -0.000  -0.000  -0.000
 

 total amount of memory used by VASP on root node   719717. kBytes
========================================================================

   base      :      30000. kBytes
   nonl-proj :     147097. kBytes
   fftplans  :       2626. kBytes
   grid      :      11206. kBytes
   one-center:         62. kBytes
   wavefun   :     528726. kBytes
 
  
  
 General timing and accounting informations for this job:
 ========================================================
  
                  Total CPU time used (sec):     1874.713
                            User time (sec):     1768.495
                          System time (sec):      106.219
                         Elapsed time (sec):     1954.766
  
                   Maximum memory used (kb):      732840.
                   Average memory used (kb):           0.
  
                          Minor page faults:       184609
                          Major page faults:            0
                 Voluntary context switches:         1394
