 vasp.5.4.1 24Jun15 (build Nov 25 2015 16:39:35) complex                        
  
 executed on         CrayXC-Intel date 2016.11.17  18:13:32
 running on  768 total cores
 distrk:  each k-point on   24 cores,   32 groups
 distr:  one band on NCORES_PER_BAND=   1 cores,   24 groups


--------------------------------------------------------------------------------------------------------


 INCAR:
 POTCAR:    PAW_PBE Cu_pv 06Sep2000               
 POTCAR:    PAW_PBE Zn 06Sep2000                  
 POTCAR:    PAW_PBE Sn_d 06Sep2000                
 POTCAR:    PAW_PBE S 06Sep2000                   

 ----------------------------------------------------------------------------- 
|                                                                             |
|           W    W    AA    RRRRR   N    N  II  N    N   GGGG   !!!           |
|           W    W   A  A   R    R  NN   N  II  NN   N  G    G  !!!           |
|           W    W  A    A  R    R  N N  N  II  N N  N  G       !!!           |
|           W WW W  AAAAAA  RRRRR   N  N N  II  N  N N  G  GGG   !            |
|           WW  WW  A    A  R   R   N   NN  II  N   NN  G    G                |
|           W    W  A    A  R    R  N    N  II  N    N   GGGG   !!!           |
|                                                                             |
|      For optimal performance we recommend to set                            |
|        NCORE= 4 - approx SQRT( number of cores)                             |
|      NCORE specifies how many cores store one orbital (NPAR=cpu/NCORE).     |
|      This setting can  greatly improve the performance of VASP for DFT.     |
|      The default, NPAR=number of cores might be grossly inefficient         |
|      on modern multi-core architectures or massively parallel machines.     |
|      Do your own testing !!!!                                               |
|      Unfortunately you need to use the default for GW and RPA calculations. |
|      (for HF NCORE is supported but not extensively tested yet)             |
|                                                                             |
 ----------------------------------------------------------------------------- 


 ----------------------------------------------------------------------------- 
|                                                                             |
|           W    W    AA    RRRRR   N    N  II  N    N   GGGG   !!!           |
|           W    W   A  A   R    R  NN   N  II  NN   N  G    G  !!!           |
|           W    W  A    A  R    R  N N  N  II  N N  N  G       !!!           |
|           W WW W  AAAAAA  RRRRR   N  N N  II  N  N N  G  GGG   !            |
|           WW  WW  A    A  R   R   N   NN  II  N   NN  G    G                |
|           W    W  A    A  R    R  N    N  II  N    N   GGGG   !!!           |
|                                                                             |
|      You have enabled k-point parallelism (KPAR>1).                         |
|      This developmental code was originally  written by Paul Kent at ORNL,  |
|      and carefully double checked in Vienna.                                |
|      GW as well as linear response parallelism added by Martijn Marsman     |
|      and Georg Kresse.                                                      |
|      Carefully verify results versus KPAR=1.                                |
|      Report problems to Paul Kent and Vienna.                               |
|                                                                             |
 ----------------------------------------------------------------------------- 

 POTCAR:    PAW_PBE Cu_pv 06Sep2000               
   VRHFIN =Cu: d10 p1                                                           
   LEXCH  = PE                                                                  
   EATOM  =  4120.1201 eV,  302.8203 Ry                                         
                                                                                
   TITEL  = PAW_PBE Cu_pv 06Sep2000                                             
   LULTRA =        F    use ultrasoft PP ?                                      
   IUNSCR =        1    unscreen: 0-lin 1-nonlin 2-no                           
   RPACOR =    1.500    partial core radius                                     
   POMASS =   63.546; ZVAL   =   17.000    mass and valenz                      
   RCORE  =    2.000    outmost cutoff radius                                   
   RWIGS  =    2.000; RWIGS  =    1.058    wigner-seitz radius (au A)           
   ENMAX  =  368.648; ENMIN  =  276.486 eV                                      
   RCLOC  =    1.304    cutoff for local pot                                    
   LCOR   =        T    correct aug charges                                     
   LPAW   =        T    paw PP                                                  
   EAUG   =  758.233                                                            
   DEXC   =    0.000                                                            
   RMAX   =    2.046    core radius for proj-oper                               
   RAUG   =    1.300    factor for augmentation sphere                          
   RDEP   =    2.025    radius for radial grids                                 
   RDEPT  =    1.558    core radius for aug-charge                              
                                                                                
   Atomic configuration                                                         
    8 entries                                                                   
     n  l   j            E        occ.                                          
     1  0  0.50     -8850.2467   2.0000                                         
     2  0  0.50     -1062.3498   2.0000                                         
     2  1  1.50      -916.8226   6.0000                                         
     3  0  0.50      -114.6929   2.0000                                         
     3  1  1.50       -72.1325   6.0000                                         
     3  2  2.50        -5.0394  10.0000                                         
     4  0  0.50        -4.6097   1.0000                                         
     4  3  2.50        -1.3606   0.0000                                         
   Description                                                                  
     l       E           TYP  RCUT    TYP  RCUT                                 
     1    -72.1324777     23  1.700                                             
     1     -1.3605826     23  1.700                                             
     2     -5.0393776     23  2.000                                             
     2     -6.3999602     23  2.000                                             
     0     -4.6097062     23  1.800                                             
     0     14.1620818     23  1.800                                             
  local pseudopotential read in
  partial core-charges read in
  partial kinetic energy density read in
  atomic valenz-charges read in
  non local Contribution for L=           1  read in
    real space projection operators read in
  non local Contribution for L=           1  read in
    real space projection operators read in
  non local Contribution for L=           2  read in
    real space projection operators read in
  non local Contribution for L=           2  read in
    real space projection operators read in
  non local Contribution for L=           0  read in
    real space projection operators read in
  non local Contribution for L=           0  read in
    real space projection operators read in
    PAW grid and wavefunctions read in
 
   number of l-projection  operators is LMAX  =           6
   number of lm-projection operators is LMMAX =          18
 
 POTCAR:    PAW_PBE Zn 06Sep2000                  
   VRHFIN =Zn: d10 p2                                                           
   LEXCH  = PE                                                                  
   EATOM  =  1748.8345 eV,  128.5357 Ry                                         
                                                                                
   TITEL  = PAW_PBE Zn 06Sep2000                                                
   LULTRA =        F    use ultrasoft PP ?                                      
   IUNSCR =        1    unscreen: 0-lin 1-nonlin 2-no                           
   RPACOR =    2.000    partial core radius                                     
   POMASS =   65.390; ZVAL   =   12.000    mass and valenz                      
   RCORE  =    2.300    outmost cutoff radius                                   
   RWIGS  =    2.400; RWIGS  =    1.270    wigner-seitz radius (au A)           
   ENMAX  =  276.723; ENMIN  =  207.542 eV                                      
   RCLOC  =    1.828    cutoff for local pot                                    
   LCOR   =        T    correct aug charges                                     
   LPAW   =        T    paw PP                                                  
   EAUG   =  575.892                                                            
   DEXC   =    0.000                                                            
   RMAX   =    2.347    core radius for proj-oper                               
   RAUG   =    1.300    factor for augmentation sphere                          
   RDEP   =    2.324    radius for radial grids                                 
   RDEPT  =    1.788    core radius for aug-charge                              
                                                                                
   Atomic configuration                                                         
    9 entries                                                                   
     n  l   j            E        occ.                                          
     1  0  0.50     -9524.6913   2.0000                                         
     2  0  0.50     -1158.1882   2.0000                                         
     2  1  1.50     -1003.8506   6.0000                                         
     3  0  0.50      -129.2194   2.0000                                         
     3  1  1.50       -83.3890   6.0000                                         
     3  2  2.50       -10.1410  10.0000                                         
     4  0  0.50        -5.9785   2.0000                                         
     4  1  0.50        -4.0817   0.0000                                         
     4  3  2.50        -1.3606   0.0000                                         
   Description                                                                  
     l       E           TYP  RCUT    TYP  RCUT                                 
     2    -10.1410010     23  2.300                                             
     2    -11.5015836     23  2.300                                             
     0     -5.9785163     23  2.300                                             
     0      1.1858015     23  2.300                                             
     1     -2.7211652     23  2.300                                             
     1     13.2444212     23  2.300                                             
  local pseudopotential read in
  partial core-charges read in
  partial kinetic energy density read in
  atomic valenz-charges read in
  non local Contribution for L=           2  read in
    real space projection operators read in
  non local Contribution for L=           2  read in
    real space projection operators read in
  non local Contribution for L=           0  read in
    real space projection operators read in
  non local Contribution for L=           0  read in
    real space projection operators read in
  non local Contribution for L=           1  read in
    real space projection operators read in
  non local Contribution for L=           1  read in
    real space projection operators read in
    PAW grid and wavefunctions read in
 
   number of l-projection  operators is LMAX  =           6
   number of lm-projection operators is LMMAX =          18
 
 POTCAR:    PAW_PBE Sn_d 06Sep2000                
   VRHFIN =Sn: s2p2                                                             
   LEXCH  = PE                                                                  
   EATOM  =  1893.1092 eV,  139.1396 Ry                                         
                                                                                
   TITEL  = PAW_PBE Sn_d 06Sep2000                                              
   LULTRA =        F    use ultrasoft PP ?                                      
   IUNSCR =        1    unscreen: 0-lin 1-nonlin 2-no                           
   RPACOR =    2.300    partial core radius                                     
   POMASS =  118.710; ZVAL   =   14.000    mass and valenz                      
   RCORE  =    2.500    outmost cutoff radius                                   
   RWIGS  =    2.960; RWIGS  =    1.566    wigner-seitz radius (au A)           
   ENMAX  =  241.083; ENMIN  =  180.812 eV                                      
   ICORE  =        3    local potential                                         
   LCOR   =        T    correct aug charges                                     
   LPAW   =        T    paw PP                                                  
   EAUG   =  439.825                                                            
   DEXC   =    0.000                                                            
   RMAX   =    2.560    core radius for proj-oper                               
   RAUG   =    1.300    factor for augmentation sphere                          
   RDEP   =    2.659    radius for radial grids                                 
   RDEPT  =    2.046    core radius for aug-charge                              
                                                                                
   Atomic configuration                                                         
   12 entries                                                                   
     n  l   j            E        occ.                                          
     1  0  0.50    -29007.2859   2.0000                                         
     2  0  0.50     -4378.8056   2.0000                                         
     2  1  1.50     -3930.4293   6.0000                                         
     3  0  0.50      -845.0264   2.0000                                         
     3  1  1.50      -698.5725   6.0000                                         
     3  2  2.50      -473.2839  10.0000                                         
     4  0  0.50      -133.9036   2.0000                                         
     4  1  1.50       -89.6752   6.0000                                         
     4  2  2.50       -25.8375  10.0000                                         
     5  0  0.50       -10.5484   2.0000                                         
     5  1  0.50        -3.6940   2.0000                                         
     4  3  2.50        -2.7416   0.0000                                         
   Description                                                                  
     l       E           TYP  RCUT    TYP  RCUT                                 
     2    -25.8374624     23  2.500                                             
     2     -5.4423304     23  2.500                                             
     0    -10.5483727     23  2.500                                             
     0     13.6058260     23  2.500                                             
     1     -3.6939829     23  2.500                                             
     1      1.9821976     23  2.500                                             
     3     -1.3605826      7  2.500                                             
  local pseudopotential read in
  partial core-charges read in
  partial kinetic energy density read in
  atomic valenz-charges read in
  non local Contribution for L=           2  read in
    real space projection operators read in
  non local Contribution for L=           2  read in
    real space projection operators read in
  non local Contribution for L=           0  read in
    real space projection operators read in
  non local Contribution for L=           0  read in
    real space projection operators read in
  non local Contribution for L=           1  read in
    real space projection operators read in
  non local Contribution for L=           1  read in
    real space projection operators read in
    PAW grid and wavefunctions read in
 
   number of l-projection  operators is LMAX  =           6
   number of lm-projection operators is LMMAX =          18
 
 POTCAR:    PAW_PBE S 06Sep2000                   
   VRHFIN =S : s2p4                                                             
   LEXCH  = PE                                                                  
   EATOM  =   276.8230 eV,   20.3459 Ry                                         
                                                                                
   TITEL  = PAW_PBE S 06Sep2000                                                 
   LULTRA =        F    use ultrasoft PP ?                                      
   IUNSCR =        1    unscreen: 0-lin 1-nonlin 2-no                           
   RPACOR =    1.500    partial core radius                                     
   POMASS =   32.066; ZVAL   =    6.000    mass and valenz                      
   RCORE  =    1.900    outmost cutoff radius                                   
   RWIGS  =    2.200; RWIGS  =    1.164    wigner-seitz radius (au A)           
   ENMAX  =  258.689; ENMIN  =  194.016 eV                                      
   ICORE  =        2    local potential                                         
   LCOR   =        T    correct aug charges                                     
   LPAW   =        T    paw PP                                                  
   EAUG   =  335.092                                                            
   DEXC   =    0.000                                                            
   RMAX   =    1.942    core radius for proj-oper                               
   RAUG   =    1.300    factor for augmentation sphere                          
   RDEP   =    1.954    radius for radial grids                                 
   RDEPT  =    1.744    core radius for aug-charge                              
                                                                                
   Atomic configuration                                                         
    6 entries                                                                   
     n  l   j            E        occ.                                          
     1  0  0.50     -2405.8406   2.0000                                         
     2  0  0.50      -211.7007   2.0000                                         
     2  1  1.50      -156.4958   6.0000                                         
     3  0  0.50       -17.2562   2.0000                                         
     3  1  0.50        -7.0085   4.0000                                         
     3  2  1.50        -6.8029   0.0000                                         
   Description                                                                  
     l       E           TYP  RCUT    TYP  RCUT                                 
     0    -17.2561641     23  1.900                                             
     0    -15.8743224     23  1.900                                             
     1     -7.0085400     23  1.900                                             
     1     -2.7779785     23  1.900                                             
     2     -6.8029130     23  1.900                                             
  local pseudopotential read in
  partial core-charges read in
  partial kinetic energy density read in
  atomic valenz-charges read in
  non local Contribution for L=           0  read in
    real space projection operators read in
  non local Contribution for L=           0  read in
    real space projection operators read in
  non local Contribution for L=           1  read in
    real space projection operators read in
  non local Contribution for L=           1  read in
    real space projection operators read in
    PAW grid and wavefunctions read in
 
   number of l-projection  operators is LMAX  =           4
   number of lm-projection operators is LMMAX =           8
 
  PAW_PBE Cu_pv 06Sep2000               :
 energy of atom  1       EATOM=-4120.1201
 kinetic energy error for atom=    0.0655 (will be added to EATOM!!)
  PAW_PBE Zn 06Sep2000                  :
 energy of atom  2       EATOM=-1748.8345
 kinetic energy error for atom=    0.0029 (will be added to EATOM!!)
  PAW_PBE Sn_d 06Sep2000                :
 energy of atom  3       EATOM=-1893.1092
 kinetic energy error for atom=    0.0032 (will be added to EATOM!!)
  PAW_PBE S 06Sep2000                   :
 energy of atom  4       EATOM= -276.8230
 kinetic energy error for atom=    0.0020 (will be added to EATOM!!)
 
 
 POSCAR: Cu2ZnSnS4 (LaFond 2014, 293 K)          
  positions in direct lattice
  No initial velocities read in
 exchange correlation table for  LEXCH =        8
   RHO(1)=    0.500       N(1)  =     2000
   RHO(2)=  100.500       N(2)  =     4000
 


--------------------------------------------------------------------------------------------------------


 ion  position               nearest neighbor table
   1  0.000  0.000  0.000-   5 2.32   6 2.32   7 2.32   8 2.32
   2  0.750  0.250  0.500-   8 2.32   6 2.32   7 2.32   5 2.32
   3  0.500  0.500  0.000-   8 2.35   6 2.35   7 2.35   5 2.35
   4  0.250  0.750  0.500-   8 2.42   6 2.42   7 2.42   5 2.42
   5  0.118  0.134  0.244-   1 2.32   2 2.32   3 2.35   4 2.42
   6  0.639  0.623  0.244-   1 2.32   2 2.32   3 2.35   4 2.42
   7  0.866  0.361  0.756-   1 2.32   2 2.32   3 2.35   4 2.42
   8  0.377  0.882  0.756-   1 2.32   2 2.32   3 2.35   4 2.42
 

IMPORTANT INFORMATION: All symmetrisations will be switched off!
NOSYMM: (Re-)initialisation of all symmetry stuff for point group C_1.

 
 
 KPOINTS: Automatically generated mesh            
  k-points in reciprocal lattice
Space group operators:
 irot       det(A)        alpha          n_x          n_y          n_z        tau_x        tau_y        tau_z
    1     1.000000     0.000000     1.000000     0.000000     0.000000     0.000000     0.000000     0.000000

 ----------------------------------------------------------------------------- 
|                                                                             |
|           W    W    AA    RRRRR   N    N  II  N    N   GGGG   !!!           |
|           W    W   A  A   R    R  NN   N  II  NN   N  G    G  !!!           |
|           W    W  A    A  R    R  N N  N  II  N N  N  G       !!!           |
|           W WW W  AAAAAA  RRRRR   N  N N  II  N  N N  G  GGG   !            |
|           WW  WW  A    A  R   R   N   NN  II  N   NN  G    G                |
|           W    W  A    A  R    R  N    N  II  N    N   GGGG   !!!           |
|                                                                             |
|      Your generating k-point grid is not commensurate to the symmetry       |
|      of the lattice.  This can cause   slow convergence with respect        |
|      to k-points for HF type calculations                                   |
|      suggested SOLUTIONS:                                                   |
|       ) if not already the case, use automatic k-point generation           |
|       ) shift your grid to Gamma (G) (e.g. required for hex or fcc lattice) |
|                                                                             |
 ----------------------------------------------------------------------------- 

 
 Subroutine IBZKPT_HF returns following result:
 ==============================================
 
 Found    283 k-points in 1st BZ
 the following    283 k-points will be used (e.g. in the exchange kernel)
 Following reciprocal coordinates:   # in IRBZ
  0.000000  0.000000  0.000000    0.00694444   1 t-inv F
  0.166667  0.000000  0.000000    0.00694444   2 t-inv F
  0.333333  0.000000  0.000000    0.00694444   3 t-inv F
  0.500000  0.000000  0.000000    0.00694444   4 t-inv F
 -0.333333  0.000000  0.000000    0.00694444   5 t-inv F
 -0.166667  0.000000  0.000000    0.00694444   6 t-inv F
  0.000000  0.166667  0.000000    0.00694444   7 t-inv F
  0.166667  0.166667  0.000000    0.00694444   8 t-inv F
  0.333333  0.166667  0.000000    0.00694444   9 t-inv F
  0.500000  0.166667  0.000000    0.00694444  10 t-inv F
 -0.333333  0.166667  0.000000    0.00694444  11 t-inv F
 -0.166667  0.166667  0.000000    0.00694444  12 t-inv F
  0.000000  0.333333  0.000000    0.00694444  13 t-inv F
  0.166667  0.333333  0.000000    0.00694444  14 t-inv F
  0.333333  0.333333  0.000000    0.00694444  15 t-inv F
  0.500000  0.333333  0.000000    0.00694444  16 t-inv F
 -0.333333  0.333333  0.000000    0.00694444  17 t-inv F
 -0.166667  0.333333  0.000000    0.00694444  18 t-inv F
  0.000000  0.500000  0.000000    0.00694444  19 t-inv F
  0.166667  0.500000  0.000000    0.00694444  20 t-inv F
  0.333333  0.500000  0.000000    0.00694444  21 t-inv F
  0.500000  0.500000  0.000000    0.00694444  22 t-inv F
 -0.333333  0.500000  0.000000    0.00694444  23 t-inv F
 -0.166667  0.500000  0.000000    0.00694444  24 t-inv F
  0.000000 -0.333333  0.000000    0.00694444  25 t-inv F
  0.166667 -0.333333  0.000000    0.00694444  26 t-inv F
  0.333333 -0.333333  0.000000    0.00694444  27 t-inv F
  0.500000 -0.333333  0.000000    0.00694444  28 t-inv F
 -0.333333 -0.333333  0.000000    0.00694444  29 t-inv F
 -0.166667 -0.333333  0.000000    0.00694444  30 t-inv F
  0.000000 -0.166667  0.000000    0.00694444  31 t-inv F
  0.166667 -0.166667  0.000000    0.00694444  32 t-inv F
  0.333333 -0.166667  0.000000    0.00694444  33 t-inv F
  0.500000 -0.166667  0.000000    0.00694444  34 t-inv F
 -0.333333 -0.166667  0.000000    0.00694444  35 t-inv F
 -0.166667 -0.166667  0.000000    0.00694444  36 t-inv F
  0.000000  0.000000  0.250000    0.00694444  37 t-inv F
  0.166667  0.000000  0.250000    0.00694444  38 t-inv F
  0.333333  0.000000  0.250000    0.00694444  39 t-inv F
  0.500000  0.000000  0.250000    0.00694444  40 t-inv F
 -0.333333  0.000000  0.250000    0.00694444  41 t-inv F
 -0.166667  0.000000  0.250000    0.00694444  42 t-inv F
  0.000000  0.166667  0.250000    0.00694444  43 t-inv F
  0.166667  0.166667  0.250000    0.00694444  44 t-inv F
  0.333333  0.166667  0.250000    0.00694444  45 t-inv F
  0.500000  0.166667  0.250000    0.00694444  46 t-inv F
 -0.333333  0.166667  0.250000    0.00694444  47 t-inv F
 -0.166667  0.166667  0.250000    0.00694444  48 t-inv F
  0.000000  0.333333  0.250000    0.00694444  49 t-inv F
  0.166667  0.333333  0.250000    0.00694444  50 t-inv F
  0.333333  0.333333  0.250000    0.00694444  51 t-inv F
  0.500000  0.333333  0.250000    0.00694444  52 t-inv F
 -0.333333  0.333333  0.250000    0.00694444  53 t-inv F
 -0.166667  0.333333  0.250000    0.00694444  54 t-inv F
  0.000000  0.500000  0.250000    0.00694444  55 t-inv F
  0.166667  0.500000  0.250000    0.00694444  56 t-inv F
  0.333333  0.500000  0.250000    0.00694444  57 t-inv F
  0.500000  0.500000  0.250000    0.00694444  58 t-inv F
 -0.333333  0.500000  0.250000    0.00694444  59 t-inv F
 -0.166667  0.500000  0.250000    0.00694444  60 t-inv F
  0.000000 -0.333333  0.250000    0.00694444  61 t-inv F
  0.166667 -0.333333  0.250000    0.00694444  62 t-inv F
  0.333333 -0.333333  0.250000    0.00694444  63 t-inv F
  0.500000 -0.333333  0.250000    0.00694444  64 t-inv F
 -0.333333 -0.333333  0.250000    0.00694444  65 t-inv F
 -0.166667 -0.333333  0.250000    0.00694444  66 t-inv F
  0.000000 -0.166667  0.250000    0.00694444  67 t-inv F
  0.166667 -0.166667  0.250000    0.00694444  68 t-inv F
  0.333333 -0.166667  0.250000    0.00694444  69 t-inv F
  0.500000 -0.166667  0.250000    0.00694444  70 t-inv F
 -0.333333 -0.166667  0.250000    0.00694444  71 t-inv F
 -0.166667 -0.166667  0.250000    0.00694444  72 t-inv F
  0.000000  0.000000  0.500000    0.00694444  73 t-inv F
  0.166667  0.000000  0.500000    0.00694444  74 t-inv F
  0.333333  0.000000  0.500000    0.00694444  75 t-inv F
  0.500000  0.000000  0.500000    0.00694444  76 t-inv F
 -0.333333  0.000000  0.500000    0.00694444  77 t-inv F
 -0.166667  0.000000  0.500000    0.00694444  78 t-inv F
  0.000000  0.166667  0.500000    0.00694444  79 t-inv F
  0.166667  0.166667  0.500000    0.00694444  80 t-inv F
  0.333333  0.166667  0.500000    0.00694444  81 t-inv F
  0.500000  0.166667  0.500000    0.00694444  82 t-inv F
 -0.333333  0.166667  0.500000    0.00694444  83 t-inv F
 -0.166667  0.166667  0.500000    0.00694444  84 t-inv F
  0.000000  0.333333  0.500000    0.00694444  85 t-inv F
  0.166667  0.333333  0.500000    0.00694444  86 t-inv F
  0.333333  0.333333  0.500000    0.00694444  87 t-inv F
  0.500000  0.333333  0.500000    0.00694444  88 t-inv F
 -0.333333  0.333333  0.500000    0.00694444  89 t-inv F
 -0.166667  0.333333  0.500000    0.00694444  90 t-inv F
  0.000000  0.500000  0.500000    0.00694444  91 t-inv F
  0.166667  0.500000  0.500000    0.00694444  92 t-inv F
  0.333333  0.500000  0.500000    0.00694444  93 t-inv F
  0.500000  0.500000  0.500000    0.00694444  94 t-inv F
 -0.333333  0.500000  0.500000    0.00694444  95 t-inv F
 -0.166667  0.500000  0.500000    0.00694444  96 t-inv F
  0.000000 -0.333333  0.500000    0.00694444  97 t-inv F
  0.166667 -0.333333  0.500000    0.00694444  98 t-inv F
  0.333333 -0.333333  0.500000    0.00694444  99 t-inv F
  0.500000 -0.333333  0.500000    0.00694444 100 t-inv F
 -0.333333 -0.333333  0.500000    0.00694444 101 t-inv F
 -0.166667 -0.333333  0.500000    0.00694444 102 t-inv F
  0.000000 -0.166667  0.500000    0.00694444 103 t-inv F
  0.166667 -0.166667  0.500000    0.00694444 104 t-inv F
  0.333333 -0.166667  0.500000    0.00694444 105 t-inv F
  0.500000 -0.166667  0.500000    0.00694444 106 t-inv F
 -0.333333 -0.166667  0.500000    0.00694444 107 t-inv F
 -0.166667 -0.166667  0.500000    0.00694444 108 t-inv F
  0.000000  0.000000 -0.250000    0.00694444 109 t-inv F
  0.166667  0.000000 -0.250000    0.00694444 110 t-inv F
  0.333333  0.000000 -0.250000    0.00694444 111 t-inv F
  0.500000  0.000000 -0.250000    0.00694444 112 t-inv F
 -0.333333  0.000000 -0.250000    0.00694444 113 t-inv F
 -0.166667  0.000000 -0.250000    0.00694444 114 t-inv F
  0.000000  0.166667 -0.250000    0.00694444 115 t-inv F
  0.166667  0.166667 -0.250000    0.00694444 116 t-inv F
  0.333333  0.166667 -0.250000    0.00694444 117 t-inv F
  0.500000  0.166667 -0.250000    0.00694444 118 t-inv F
 -0.333333  0.166667 -0.250000    0.00694444 119 t-inv F
 -0.166667  0.166667 -0.250000    0.00694444 120 t-inv F
  0.000000  0.333333 -0.250000    0.00694444 121 t-inv F
  0.166667  0.333333 -0.250000    0.00694444 122 t-inv F
  0.333333  0.333333 -0.250000    0.00694444 123 t-inv F
  0.500000  0.333333 -0.250000    0.00694444 124 t-inv F
 -0.333333  0.333333 -0.250000    0.00694444 125 t-inv F
 -0.166667  0.333333 -0.250000    0.00694444 126 t-inv F
  0.000000  0.500000 -0.250000    0.00694444 127 t-inv F
  0.166667  0.500000 -0.250000    0.00694444 128 t-inv F
  0.333333  0.500000 -0.250000    0.00694444 129 t-inv F
  0.500000  0.500000 -0.250000    0.00694444 130 t-inv F
 -0.333333  0.500000 -0.250000    0.00694444 131 t-inv F
 -0.166667  0.500000 -0.250000    0.00694444 132 t-inv F
  0.000000 -0.333333 -0.250000    0.00694444 133 t-inv F
  0.166667 -0.333333 -0.250000    0.00694444 134 t-inv F
  0.333333 -0.333333 -0.250000    0.00694444 135 t-inv F
  0.500000 -0.333333 -0.250000    0.00694444 136 t-inv F
 -0.333333 -0.333333 -0.250000    0.00694444 137 t-inv F
 -0.166667 -0.333333 -0.250000    0.00694444 138 t-inv F
  0.000000 -0.166667 -0.250000    0.00694444 139 t-inv F
  0.166667 -0.166667 -0.250000    0.00694444 140 t-inv F
  0.333333 -0.166667 -0.250000    0.00694444 141 t-inv F
  0.500000 -0.166667 -0.250000    0.00694444 142 t-inv F
 -0.333333 -0.166667 -0.250000    0.00694444 143 t-inv F
 -0.166667 -0.166667 -0.250000    0.00694444 144 t-inv F
  0.000000  0.000000  0.000000    0.00000000 145 t-inv F
  0.000000  0.015152  0.000000    0.00000000 146 t-inv F
  0.000000  0.030303  0.000000    0.00000000 147 t-inv F
  0.000000  0.045455  0.000000    0.00000000 148 t-inv F
  0.000000  0.060606  0.000000    0.00000000 149 t-inv F
  0.000000  0.075758  0.000000    0.00000000 150 t-inv F
  0.000000  0.090909  0.000000    0.00000000 151 t-inv F
  0.000000  0.106061  0.000000    0.00000000 152 t-inv F
  0.000000  0.121212  0.000000    0.00000000 153 t-inv F
  0.000000  0.136364  0.000000    0.00000000 154 t-inv F
  0.000000  0.151515  0.000000    0.00000000 155 t-inv F
  0.000000  0.166667  0.000000    0.00000000 156 t-inv F
  0.000000  0.181818  0.000000    0.00000000 157 t-inv F
  0.000000  0.196970  0.000000    0.00000000 158 t-inv F
  0.000000  0.212121  0.000000    0.00000000 159 t-inv F
  0.000000  0.227273  0.000000    0.00000000 160 t-inv F
  0.000000  0.242424  0.000000    0.00000000 161 t-inv F
  0.000000  0.257576  0.000000    0.00000000 162 t-inv F
  0.000000  0.272727  0.000000    0.00000000 163 t-inv F
  0.000000  0.287879  0.000000    0.00000000 164 t-inv F
  0.000000  0.303030  0.000000    0.00000000 165 t-inv F
  0.000000  0.318182  0.000000    0.00000000 166 t-inv F
  0.000000  0.333333  0.000000    0.00000000 167 t-inv F
  0.000000  0.348485  0.000000    0.00000000 168 t-inv F
  0.000000  0.363636  0.000000    0.00000000 169 t-inv F
  0.000000  0.378788  0.000000    0.00000000 170 t-inv F
  0.000000  0.393939  0.000000    0.00000000 171 t-inv F
  0.000000  0.409091  0.000000    0.00000000 172 t-inv F
  0.000000  0.424242  0.000000    0.00000000 173 t-inv F
  0.000000  0.439394  0.000000    0.00000000 174 t-inv F
  0.000000  0.454545  0.000000    0.00000000 175 t-inv F
  0.000000  0.469697  0.000000    0.00000000 176 t-inv F
  0.000000  0.484849  0.000000    0.00000000 177 t-inv F
  0.000000  0.500000  0.000000    0.00000000 178 t-inv F
  0.015152  0.500000  0.000000    0.00000000 179 t-inv F
  0.030303  0.500000  0.000000    0.00000000 180 t-inv F
  0.045455  0.500000  0.000000    0.00000000 181 t-inv F
  0.060606  0.500000  0.000000    0.00000000 182 t-inv F
  0.075758  0.500000  0.000000    0.00000000 183 t-inv F
  0.090909  0.500000  0.000000    0.00000000 184 t-inv F
  0.106061  0.500000  0.000000    0.00000000 185 t-inv F
  0.121212  0.500000  0.000000    0.00000000 186 t-inv F
  0.136364  0.500000  0.000000    0.00000000 187 t-inv F
  0.151515  0.500000  0.000000    0.00000000 188 t-inv F
  0.166667  0.500000  0.000000    0.00000000 189 t-inv F
  0.181818  0.500000  0.000000    0.00000000 190 t-inv F
  0.196970  0.500000  0.000000    0.00000000 191 t-inv F
  0.212121  0.500000  0.000000    0.00000000 192 t-inv F
  0.227273  0.500000  0.000000    0.00000000 193 t-inv F
  0.242424  0.500000  0.000000    0.00000000 194 t-inv F
  0.257576  0.500000  0.000000    0.00000000 195 t-inv F
  0.272727  0.500000  0.000000    0.00000000 196 t-inv F
  0.287879  0.500000  0.000000    0.00000000 197 t-inv F
  0.303030  0.500000  0.000000    0.00000000 198 t-inv F
  0.318182  0.500000  0.000000    0.00000000 199 t-inv F
  0.333333  0.500000  0.000000    0.00000000 200 t-inv F
  0.348485  0.500000  0.000000    0.00000000 201 t-inv F
  0.363636  0.500000  0.000000    0.00000000 202 t-inv F
  0.378788  0.500000  0.000000    0.00000000 203 t-inv F
  0.393939  0.500000  0.000000    0.00000000 204 t-inv F
  0.409091  0.500000  0.000000    0.00000000 205 t-inv F
  0.424242  0.500000  0.000000    0.00000000 206 t-inv F
  0.439394  0.500000  0.000000    0.00000000 207 t-inv F
  0.454545  0.500000  0.000000    0.00000000 208 t-inv F
  0.469697  0.500000  0.000000    0.00000000 209 t-inv F
  0.484849  0.500000  0.000000    0.00000000 210 t-inv F
  0.500000  0.500000  0.000000    0.00000000 211 t-inv F
  0.489130  0.489130  0.000000    0.00000000 212 t-inv F
  0.478261  0.478261  0.000000    0.00000000 213 t-inv F
  0.467391  0.467391  0.000000    0.00000000 214 t-inv F
  0.456522  0.456522  0.000000    0.00000000 215 t-inv F
  0.445652  0.445652  0.000000    0.00000000 216 t-inv F
  0.434783  0.434783  0.000000    0.00000000 217 t-inv F
  0.423913  0.423913  0.000000    0.00000000 218 t-inv F
  0.413043  0.413043  0.000000    0.00000000 219 t-inv F
  0.402174  0.402174  0.000000    0.00000000 220 t-inv F
  0.391304  0.391304  0.000000    0.00000000 221 t-inv F
  0.380435  0.380435  0.000000    0.00000000 222 t-inv F
  0.369565  0.369565  0.000000    0.00000000 223 t-inv F
  0.358696  0.358696  0.000000    0.00000000 224 t-inv F
  0.347826  0.347826  0.000000    0.00000000 225 t-inv F
  0.336957  0.336957  0.000000    0.00000000 226 t-inv F
  0.326087  0.326087  0.000000    0.00000000 227 t-inv F
  0.315217  0.315217  0.000000    0.00000000 228 t-inv F
  0.304348  0.304348  0.000000    0.00000000 229 t-inv F
  0.293478  0.293478  0.000000    0.00000000 230 t-inv F
  0.282609  0.282609  0.000000    0.00000000 231 t-inv F
  0.271739  0.271739  0.000000    0.00000000 232 t-inv F
  0.260870  0.260870  0.000000    0.00000000 233 t-inv F
  0.250000  0.250000  0.000000    0.00000000 234 t-inv F
  0.239130  0.239130  0.000000    0.00000000 235 t-inv F
  0.228261  0.228261  0.000000    0.00000000 236 t-inv F
  0.217391  0.217391  0.000000    0.00000000 237 t-inv F
  0.206522  0.206522  0.000000    0.00000000 238 t-inv F
  0.195652  0.195652  0.000000    0.00000000 239 t-inv F
  0.184783  0.184783  0.000000    0.00000000 240 t-inv F
  0.173913  0.173913  0.000000    0.00000000 241 t-inv F
  0.163044  0.163044  0.000000    0.00000000 242 t-inv F
  0.152174  0.152174  0.000000    0.00000000 243 t-inv F
  0.141304  0.141304  0.000000    0.00000000 244 t-inv F
  0.130435  0.130435  0.000000    0.00000000 245 t-inv F
  0.119565  0.119565  0.000000    0.00000000 246 t-inv F
  0.108696  0.108696  0.000000    0.00000000 247 t-inv F
  0.097826  0.097826  0.000000    0.00000000 248 t-inv F
  0.086957  0.086957  0.000000    0.00000000 249 t-inv F
  0.076087  0.076087  0.000000    0.00000000 250 t-inv F
  0.065217  0.065217  0.000000    0.00000000 251 t-inv F
  0.054348  0.054348  0.000000    0.00000000 252 t-inv F
  0.043478  0.043478  0.000000    0.00000000 253 t-inv F
  0.032609  0.032609  0.000000    0.00000000 254 t-inv F
  0.021739  0.021739  0.000000    0.00000000 255 t-inv F
  0.010870  0.010870  0.000000    0.00000000 256 t-inv F
  0.000000  0.000000  0.000000    0.00000000 257 t-inv F
  0.000000  0.000000  0.019231    0.00000000 258 t-inv F
  0.000000  0.000000  0.038462    0.00000000 259 t-inv F
  0.000000  0.000000  0.057692    0.00000000 260 t-inv F
  0.000000  0.000000  0.076923    0.00000000 261 t-inv F
  0.000000  0.000000  0.096154    0.00000000 262 t-inv F
  0.000000  0.000000  0.115385    0.00000000 263 t-inv F
  0.000000  0.000000  0.134615    0.00000000 264 t-inv F
  0.000000  0.000000  0.153846    0.00000000 265 t-inv F
  0.000000  0.000000  0.173077    0.00000000 266 t-inv F
  0.000000  0.000000  0.192308    0.00000000 267 t-inv F
  0.000000  0.000000  0.211538    0.00000000 268 t-inv F
  0.000000  0.000000  0.230769    0.00000000 269 t-inv F
  0.000000  0.000000  0.250000    0.00000000 270 t-inv F
  0.000000  0.000000  0.269231    0.00000000 271 t-inv F
  0.000000  0.000000  0.288462    0.00000000 272 t-inv F
  0.000000  0.000000  0.307692    0.00000000 273 t-inv F
  0.000000  0.000000  0.326923    0.00000000 274 t-inv F
  0.000000  0.000000  0.346154    0.00000000 275 t-inv F
  0.000000  0.000000  0.365385    0.00000000 276 t-inv F
  0.000000  0.000000  0.384615    0.00000000 277 t-inv F
  0.000000  0.000000  0.403846    0.00000000 278 t-inv F
  0.000000  0.000000  0.423077    0.00000000 279 t-inv F
  0.000000  0.000000  0.442308    0.00000000 280 t-inv F
  0.000000  0.000000  0.461538    0.00000000 281 t-inv F
  0.000000  0.000000  0.480769    0.00000000 282 t-inv F
  0.000000  0.000000  0.500000    0.00000000 283 t-inv F

 ----------------------------------------------------------------------------- 
|                                                                             |
|           W    W    AA    RRRRR   N    N  II  N    N   GGGG   !!!           |
|           W    W   A  A   R    R  NN   N  II  NN   N  G    G  !!!           |
|           W    W  A    A  R    R  N N  N  II  N N  N  G       !!!           |
|           W WW W  AAAAAA  RRRRR   N  N N  II  N  N N  G  GGG   !            |
|           WW  WW  A    A  R   R   N   NN  II  N   NN  G    G                |
|           W    W  A    A  R    R  N    N  II  N    N   GGGG   !!!           |
|                                                                             |
|      The number of bands has been changed from the values supplied          |
|      in the INCAR file. This is a result of running the parallel version.   |
|      The orbitals not found in the WAVECAR file will be initialized with    |
|      random numbers, which is usually adequate. For correlated              |
|      calculations, however, you should redo the groundstate calculation.    |
|      I found NBANDS    =      112  now  NBANDS  =     120                   |
|                                                                             |
 ----------------------------------------------------------------------------- 



--------------------------------------------------------------------------------------------------------




 Dimension of arrays:
   k-points           NKPTS =    283   k-points in BZ     NKDIM =    283   number of bands    NBANDS=    120
   number of dos      NEDOS =    301   number of ions     NIONS =      8
   non local maximal  LDIM  =      6   non local SUM 2l+1 LMDIM =     18
   total plane-waves  NPLWV =  76800
   max r-space proj   IRMAX =      1   max aug-charges    IRDMAX=  21604
   dimension x,y,z NGX =    40 NGY =   40 NGZ =   48
   dimension x,y,z NGXF=    80 NGYF=   80 NGZF=   96
   support grid    NGXF=    80 NGYF=   80 NGZF=   96
   ions per type =               2   1   1   4
 NGX,Y,Z   is equivalent  to a cutoff of  12.23, 12.23, 12.01 a.u.
 NGXF,Y,Z  is equivalent  to a cutoff of  24.47, 24.47, 24.01 a.u.


 I would recommend the setting:
   dimension x,y,z NGX =    40 NGY =   40 NGZ =   48
 SYSTEM =  Hybrid non self-consistent (band struct 
 POSCAR =  Cu2ZnSnS4 (LaFond 2014, 293 K)          

 Startparameter for this run:
   NWRITE =      2    write-flag & timer
   PREC   = accura    normal or accurate (medium, high low for compatibility)
   ISTART =      0    job   : 0-new  1-cont  2-samecut
   ICHARG =      2    charge: 1-file 2-atom 10-const
   ISPIN  =      1    spin polarized calculation?
   LNONCOLLINEAR =      T non collinear calculations
   LSORBIT =      T    spin-orbit coupling
   INIWAV =      1    electr: 0-lowe 1-rand  2-diag
   LASPH  =      F    aspherical Exc in radial PAW
   METAGGA=      F    non-selfconsistent MetaGGA calc.

 Electronic Relaxation 1
   ENCUT  =  500.0 eV  36.75 Ry    6.06 a.u.   9.91  9.91 12.12*2*pi/ulx,y,z
   ENINI  =  500.0     initial cutoff
   ENAUG  =  758.2 eV  augmentation charge cutoff
   NELM   =     60;   NELMIN=  5; NELMDL=  0     # of ELM steps 
   EDIFF  = 0.1E-05   stopping-criterion for ELM
   LREAL  =      F    real-space projection
   NLSPLINE    = F    spline interpolate recip. space projectors
   LCOMPAT=      F    compatible to vasp.4.4
   GGA_COMPAT  = T    GGA compatible to vasp.4.4-vasp.4.6
   LMAXPAW     = -100 max onsite density
   LMAXMIX     =    2 max onsite mixed and CHGCAR
   VOSKOWN=      0    Vosko Wilk Nusair interpolation
   ROPT   =    0.00000   0.00000   0.00000   0.00000
 Ionic relaxation
   EDIFFG = -.5E-02   stopping-criterion for IOM
   NSW    =      0    number of steps for IOM
   NBLOCK =      1;   KBLOCK =      1    inner block; outer block 
   IBRION =     -1    ionic relax: 0-MD 1-quasi-New 2-CG
   NFREE  =      0    steps in history (QN), initial steepest desc. (CG)
   ISIF   =      3    stress and relaxation
   IWAVPR =     10    prediction:  0-non 1-charg 2-wave 3-comb
   ISYM   =      0    0-nonsym 1-usesym 2-fastsym
   LCORR  =      T    Harris-Foulkes like correction to forces

   POTIM  = 0.5000    time-step for ionic-motion
   TEIN   =    0.0    initial temperature
   TEBEG  =    0.0;   TEEND  =   0.0 temperature during run
   SMASS  =  -3.00    Nose mass-parameter (am)
   estimated Nose-frequenzy (Omega)   =  0.10E-29 period in steps =****** mass=  -0.675E-27a.u.
   SCALEE = 1.0000    scale energy and forces
   NPACO  =    256;   APACO  = 16.0  distance and # of slots for P.C.
   PSTRESS=    0.0 pullay stress

  Mass of Ions in am
   POMASS =  63.55 65.39118.71 32.07
  Ionic Valenz
   ZVAL   =  17.00 12.00 14.00  6.00
  Atomic Wigner-Seitz radii
   RWIGS  =  -1.00 -1.00 -1.00 -1.00
  virtual crystal weights 
   VCA    =   1.00  1.00  1.00  1.00
   NELECT =      84.0000    total number of electrons
   NUPDOWN=      -1.0000    fix difference up-down

 DOS related values:
   EMIN   =  10.00;   EMAX   =-10.00  energy-range for DOS
   EFERMI =   0.00
   ISMEAR =     0;   SIGMA  =   0.01  broadening in eV -4-tet -1-fermi 0-gaus

 Electronic relaxation 2 (details)
   IALGO  =     58    algorithm
   LDIAG  =      T    sub-space diagonalisation (order eigenvalues)
   LSUBROT=      F    optimize rotation matrix (better conditioning)
   TURBO    =      0    0=normal 1=particle mesh
   IRESTART =      0    0=no restart 2=restart with 2 vectors
   NREBOOT  =      0    no. of reboots
   NMIN     =      0    reboot dimension
   EREF     =   0.00    reference energy to select bands
   IMIX   =      4    mixing-type and parameters
     AMIX     =   0.40;   BMIX     =  1.00
     AMIX_MAG =   1.60;   BMIX_MAG =  1.00
     AMIN     =   0.10
     WC   =   100.;   INIMIX=   1;  MIXPRE=   1;  MAXMIX= -45

 Intra band minimization:
   WEIMIN = 0.0000     energy-eigenvalue tresh-hold
   EBREAK =  0.21E-08  absolut break condition
   DEPER  =   0.30     relativ break condition  

   TIME   =   0.40     timestep for ELM

  volume/ion in A,a.u.               =      20.03       135.15
  Fermi-wavevector in a.u.,A,eV,Ry     =   1.320082  2.494593 23.709739  1.742617
  Thomas-Fermi vector in A             =   2.449934
 
 Write flags
   LWAVE  =      T    write WAVECAR
   LCHARG =      T    write CHGCAR
   LVTOT  =      F    write LOCPOT, total local potential
   LVHAR  =      F    write LOCPOT, Hartree potential only
   LELF   =      F    write electronic localiz. function (ELF)
   LORBIT =     10    0 simple, 1 ext, 2 COOP (PROOUT)


 Dipole corrections
   LMONO  =      F    monopole corrections only (constant potential shift)
   LDIPOL =      F    correct potential (dipole corrections)
   IDIPOL =      0    1-x, 2-y, 3-z, 4-all directions 
   EPSILON=  1.0000000 bulk dielectric constant

 Core level calculations are selected ICORELEVEL =  1
 Exchange correlation treatment:
   GGA     =    --    GGA type
   LEXCH   =     8    internal setting for exchange type
   VOSKOWN=      0    Vosko Wilk Nusair interpolation
   EXXOEP  =     0    0=HF, 1=EXX-LHF (local Hartree Fock) 2=EXX OEP
   LHFCALC =     T    Hartree Fock is set to
   LSYMGRAD=     F    symmetrize gradient (conserves proper symmetry)
   PRECFOCK=fast      Normal, Fast or Accurate (Low or Medium for compatibility)
   LRHFCALC=     F    long range Hartree Fock
   LRSCOR  =     F    long range correlation only (use DFT for short range part)
   LTHOMAS =     F    Thomas Fermi screening in HF
   LMODELHF=     F    short range full HF, long range fraction AEXX
   ENCUT4O =  -1.0   cutoff for four orbital integrals eV
   LMAXFOCK=     4    L truncation for augmentation on plane wave grid
   LMAXFOCKAE=  -1    L truncation for all-electron charge restoration on plane wave grid
   NMAXFOCKAE=   1    number of basis functions for all-electron charge restoration
   LFOCKAEDFT=     F  apply the AE augmentation even for DFT
   NKREDX  =     1    reduce k-point grid by
   NKREDY  =     1    reduce k-point grid by
   NKREDZ  =     1    reduce k-point grid by
   SHIFTRED=     F    shift reduced grid of Gamma
   HFKIDENT=     F    idential grid for each k-point
   ODDONLY =     F    use only odd q-grid points
   EVENONLY=     F    use only even q-grid points
   HFALPHA =   -1.0000 decay constant for conv. correction
   MCALPHA =    0.0000 extent of test-charge in conv. correction in multipole expansion
   AEXX    =    0.2500 exact exchange contribution
   HFSCREEN=    0.2070 screening length (either q_TF or 0.3 A-1)
   HFSCREENC=   0.2070 screening length for correlation (either q_TF or 0.3 A-1)
   HFRCUT  =    0.0000 spherical cutoff for potential kernel
   ALDAX   =    0.7500 LDA exchange part
   AGGAX   =    0.7500 GGA exchange part
   ALDAC   =    1.0000 LDA correlation
   AGGAC   =    1.0000 GGA correlation
   NBANDSGWLOW=     1    first orbital included in HF term
   ENCUTFOCK=  -1.0 apply spherical cutoff to Coloumb kernel
 Linear response parameters
   LEPSILON=     F    determine dielectric tensor
   LRPA    =     F    only Hartree local field effects (RPA)
   LNABLA  =     F    use nabla operator in PAW spheres
   LVEL    =     F    velocity operator in full k-point grid
   LINTERFAST=   F  fast interpolation
   KINTER  =     0    interpolate to denser k-point grid
   CSHIFT  =0.1000    complex shift for real part using Kramers Kronig
   OMEGAMAX=  -1.0    maximum frequency
   DEG_THRESHOLD= 0.2000000E-02 threshold for treating states as degnerate
   RTIME   =    0.100 relaxation time in fs

 Orbital magnetization related:
   ORBITALMAG=     F  switch on orbital magnetization
   LCHIMAG   =     F  perturbation theory with respect to B field
   DQ        =  0.001000  dq finite difference perturbation B field



--------------------------------------------------------------------------------------------------------


 Static calculation
 charge density and potential will be updated during run
 non collinear spin polarized calculation
 Conjugate gradient for all bands (Freysoldt, et al. PRB 79, 241103 (2009))
 preconditioned conjugated gradient                                        
 perform sub-space diagonalisation
    before iterative eigenvector-optimisation
 modified Broyden-mixing scheme, WC =      100.0
 initial mixing is a Kerker type mixing with AMIX =  0.4000 and BMIX =      1.0000
 Hartree-type preconditioning will be used
 using additional bands           78
 reciprocal scheme for non local part
 use partial core corrections
 no Harris-corrections to forces 
 use gradient corrections 
 use of overlap-Matrix (Vanderbilt PP)
 Gauss-broadening in eV      SIGMA  =   0.01


--------------------------------------------------------------------------------------------------------


  energy-cutoff  :      500.00
  volume of cell :      160.21
      direct lattice vectors                 reciprocal lattice vectors
     5.435300000  0.000000000  0.000000000     0.183982485  0.000000000 -0.092196841
     0.000000000  5.435300000  0.000000000     0.000000000  0.183982485 -0.092196841
     2.717650000  2.717650000  5.423179281     0.000000000  0.000000000  0.184393683

  length of vectors
     5.435300000  5.435300000  6.646962958     0.205790700  0.205790700  0.184393683


 
 k-points in units of 2pi/SCALE and weight: Automatically generated mesh            
   0.00000000  0.00000000  0.00000000       0.007
   0.16666667  0.00000000 -0.08351958       0.007
   0.33333333  0.00000000 -0.16703916       0.007
   0.50000000  0.00000000 -0.25055875       0.007
  -0.33333333  0.00000000  0.16703916       0.007
  -0.16666667  0.00000000  0.08351958       0.007
   0.00000000  0.16666667 -0.08351958       0.007
   0.16666667  0.16666667 -0.16703916       0.007
   0.33333333  0.16666667 -0.25055875       0.007
   0.50000000  0.16666667 -0.33407833       0.007
  -0.33333333  0.16666667  0.08351958       0.007
  -0.16666667  0.16666667  0.00000000       0.007
   0.00000000  0.33333333 -0.16703916       0.007
   0.16666667  0.33333333 -0.25055875       0.007
   0.33333333  0.33333333 -0.33407833       0.007
   0.50000000  0.33333333 -0.41759791       0.007
  -0.33333333  0.33333333  0.00000000       0.007
  -0.16666667  0.33333333 -0.08351958       0.007
   0.00000000  0.50000000 -0.25055875       0.007
   0.16666667  0.50000000 -0.33407833       0.007
   0.33333333  0.50000000 -0.41759791       0.007
   0.50000000  0.50000000 -0.50111749       0.007
  -0.33333333  0.50000000 -0.08351958       0.007
  -0.16666667  0.50000000 -0.16703916       0.007
   0.00000000 -0.33333333  0.16703916       0.007
   0.16666667 -0.33333333  0.08351958       0.007
   0.33333333 -0.33333333  0.00000000       0.007
   0.50000000 -0.33333333 -0.08351958       0.007
  -0.33333333 -0.33333333  0.33407833       0.007
  -0.16666667 -0.33333333  0.25055875       0.007
   0.00000000 -0.16666667  0.08351958       0.007
   0.16666667 -0.16666667  0.00000000       0.007
   0.33333333 -0.16666667 -0.08351958       0.007
   0.50000000 -0.16666667 -0.16703916       0.007
  -0.33333333 -0.16666667  0.25055875       0.007
  -0.16666667 -0.16666667  0.16703916       0.007
   0.00000000  0.00000000  0.25055875       0.007
   0.16666667  0.00000000  0.16703916       0.007
   0.33333333  0.00000000  0.08351958       0.007
   0.50000000  0.00000000  0.00000000       0.007
  -0.33333333  0.00000000  0.41759791       0.007
  -0.16666667  0.00000000  0.33407833       0.007
   0.00000000  0.16666667  0.16703916       0.007
   0.16666667  0.16666667  0.08351958       0.007
   0.33333333  0.16666667  0.00000000       0.007
   0.50000000  0.16666667 -0.08351958       0.007
  -0.33333333  0.16666667  0.33407833       0.007
  -0.16666667  0.16666667  0.25055875       0.007
   0.00000000  0.33333333  0.08351958       0.007
   0.16666667  0.33333333  0.00000000       0.007
   0.33333333  0.33333333 -0.08351958       0.007
   0.50000000  0.33333333 -0.16703916       0.007
  -0.33333333  0.33333333  0.25055875       0.007
  -0.16666667  0.33333333  0.16703916       0.007
   0.00000000  0.50000000  0.00000000       0.007
   0.16666667  0.50000000 -0.08351958       0.007
   0.33333333  0.50000000 -0.16703916       0.007
   0.50000000  0.50000000 -0.25055875       0.007
  -0.33333333  0.50000000  0.16703916       0.007
  -0.16666667  0.50000000  0.08351958       0.007
   0.00000000 -0.33333333  0.41759791       0.007
   0.16666667 -0.33333333  0.33407833       0.007
   0.33333333 -0.33333333  0.25055875       0.007
   0.50000000 -0.33333333  0.16703916       0.007
  -0.33333333 -0.33333333  0.58463707       0.007
  -0.16666667 -0.33333333  0.50111749       0.007
   0.00000000 -0.16666667  0.33407833       0.007
   0.16666667 -0.16666667  0.25055875       0.007
   0.33333333 -0.16666667  0.16703916       0.007
   0.50000000 -0.16666667  0.08351958       0.007
  -0.33333333 -0.16666667  0.50111749       0.007
  -0.16666667 -0.16666667  0.41759791       0.007
   0.00000000  0.00000000  0.50111749       0.007
   0.16666667  0.00000000  0.41759791       0.007
   0.33333333  0.00000000  0.33407833       0.007
   0.50000000  0.00000000  0.25055875       0.007
  -0.33333333  0.00000000  0.66815666       0.007
  -0.16666667  0.00000000  0.58463707       0.007
   0.00000000  0.16666667  0.41759791       0.007
   0.16666667  0.16666667  0.33407833       0.007
   0.33333333  0.16666667  0.25055875       0.007
   0.50000000  0.16666667  0.16703916       0.007
  -0.33333333  0.16666667  0.58463707       0.007
  -0.16666667  0.16666667  0.50111749       0.007
   0.00000000  0.33333333  0.33407833       0.007
   0.16666667  0.33333333  0.25055875       0.007
   0.33333333  0.33333333  0.16703916       0.007
   0.50000000  0.33333333  0.08351958       0.007
  -0.33333333  0.33333333  0.50111749       0.007
  -0.16666667  0.33333333  0.41759791       0.007
   0.00000000  0.50000000  0.25055875       0.007
   0.16666667  0.50000000  0.16703916       0.007
   0.33333333  0.50000000  0.08351958       0.007
   0.50000000  0.50000000  0.00000000       0.007
  -0.33333333  0.50000000  0.41759791       0.007
  -0.16666667  0.50000000  0.33407833       0.007
   0.00000000 -0.33333333  0.66815666       0.007
   0.16666667 -0.33333333  0.58463707       0.007
   0.33333333 -0.33333333  0.50111749       0.007
   0.50000000 -0.33333333  0.41759791       0.007
  -0.33333333 -0.33333333  0.83519582       0.007
  -0.16666667 -0.33333333  0.75167624       0.007
   0.00000000 -0.16666667  0.58463707       0.007
   0.16666667 -0.16666667  0.50111749       0.007
   0.33333333 -0.16666667  0.41759791       0.007
   0.50000000 -0.16666667  0.33407833       0.007
  -0.33333333 -0.16666667  0.75167624       0.007
  -0.16666667 -0.16666667  0.66815666       0.007
   0.00000000  0.00000000 -0.25055875       0.007
   0.16666667  0.00000000 -0.33407833       0.007
   0.33333333  0.00000000 -0.41759791       0.007
   0.50000000  0.00000000 -0.50111749       0.007
  -0.33333333  0.00000000 -0.08351958       0.007
  -0.16666667  0.00000000 -0.16703916       0.007
   0.00000000  0.16666667 -0.33407833       0.007
   0.16666667  0.16666667 -0.41759791       0.007
   0.33333333  0.16666667 -0.50111749       0.007
   0.50000000  0.16666667 -0.58463707       0.007
  -0.33333333  0.16666667 -0.16703916       0.007
  -0.16666667  0.16666667 -0.25055875       0.007
   0.00000000  0.33333333 -0.41759791       0.007
   0.16666667  0.33333333 -0.50111749       0.007
   0.33333333  0.33333333 -0.58463707       0.007
   0.50000000  0.33333333 -0.66815666       0.007
  -0.33333333  0.33333333 -0.25055875       0.007
  -0.16666667  0.33333333 -0.33407833       0.007
   0.00000000  0.50000000 -0.50111749       0.007
   0.16666667  0.50000000 -0.58463707       0.007
   0.33333333  0.50000000 -0.66815666       0.007
   0.50000000  0.50000000 -0.75167624       0.007
  -0.33333333  0.50000000 -0.33407833       0.007
  -0.16666667  0.50000000 -0.41759791       0.007
   0.00000000 -0.33333333 -0.08351958       0.007
   0.16666667 -0.33333333 -0.16703916       0.007
   0.33333333 -0.33333333 -0.25055875       0.007
   0.50000000 -0.33333333 -0.33407833       0.007
  -0.33333333 -0.33333333  0.08351958       0.007
  -0.16666667 -0.33333333 -0.00000000       0.007
   0.00000000 -0.16666667 -0.16703916       0.007
   0.16666667 -0.16666667 -0.25055875       0.007
   0.33333333 -0.16666667 -0.33407833       0.007
   0.50000000 -0.16666667 -0.41759791       0.007
  -0.33333333 -0.16666667 -0.00000000       0.007
  -0.16666667 -0.16666667 -0.08351958       0.007
   0.00000000  0.00000000  0.00000000       0.000
   0.00000000  0.01515152 -0.00759269       0.000
   0.00000000  0.03030303 -0.01518538       0.000
   0.00000000  0.04545455 -0.02277807       0.000
   0.00000000  0.06060606 -0.03037076       0.000
   0.00000000  0.07575758 -0.03796345       0.000
   0.00000000  0.09090909 -0.04555614       0.000
   0.00000000  0.10606061 -0.05314883       0.000
   0.00000000  0.12121212 -0.06074151       0.000
   0.00000000  0.13636364 -0.06833421       0.000
   0.00000000  0.15151516 -0.07592690       0.000
   0.00000000  0.16666667 -0.08351958       0.000
   0.00000000  0.18181819 -0.09111228       0.000
   0.00000000  0.19696970 -0.09870496       0.000
   0.00000000  0.21212122 -0.10629765       0.000
   0.00000000  0.22727273 -0.11389034       0.000
   0.00000000  0.24242425 -0.12148303       0.000
   0.00000000  0.25757575 -0.12907571       0.000
   0.00000000  0.27272728 -0.13666841       0.000
   0.00000000  0.28787881 -0.14426111       0.000
   0.00000000  0.30303031 -0.15185379       0.000
   0.00000000  0.31818181 -0.15944647       0.000
   0.00000000  0.33333334 -0.16703917       0.000
   0.00000000  0.34848487 -0.17463186       0.000
   0.00000000  0.36363637 -0.18222455       0.000
   0.00000000  0.37878788 -0.18981723       0.000
   0.00000000  0.39393941 -0.19740993       0.000
   0.00000000  0.40909094 -0.20500263       0.000
   0.00000000  0.42424244 -0.21259531       0.000
   0.00000000  0.43939394 -0.22018799       0.000
   0.00000000  0.45454547 -0.22778069       0.000
   0.00000000  0.46969700 -0.23537338       0.000
   0.00000000  0.48484850 -0.24296606       0.000
   0.00000000  0.50000000 -0.25055875       0.000
   0.01515152  0.50000000 -0.25815144       0.000
   0.03030303  0.50000000 -0.26574412       0.000
   0.04545455  0.50000000 -0.27333682       0.000
   0.06060606  0.50000000 -0.28092950       0.000
   0.07575758  0.50000000 -0.28852219       0.000
   0.09090909  0.50000000 -0.29611488       0.000
   0.10606061  0.50000000 -0.30370757       0.000
   0.12121212  0.50000000 -0.31130026       0.000
   0.13636364  0.50000000 -0.31889295       0.000
   0.15151516  0.50000000 -0.32648564       0.000
   0.16666667  0.50000000 -0.33407833       0.000
   0.18181819  0.50000000 -0.34167102       0.000
   0.19696970  0.50000000 -0.34926371       0.000
   0.21212122  0.50000000 -0.35685640       0.000
   0.22727273  0.50000000 -0.36444909       0.000
   0.24242425  0.50000000 -0.37204178       0.000
   0.25757575  0.50000000 -0.37963446       0.000
   0.27272728  0.50000000 -0.38722716       0.000
   0.28787881  0.50000000 -0.39481985       0.000
   0.30303031  0.50000000 -0.40241253       0.000
   0.31818181  0.50000000 -0.41000522       0.000
   0.33333334  0.50000000 -0.41759791       0.000
   0.34848487  0.50000000 -0.42519061       0.000
   0.36363637  0.50000000 -0.43278329       0.000
   0.37878788  0.50000000 -0.44037598       0.000
   0.39393941  0.50000000 -0.44796868       0.000
   0.40909094  0.50000000 -0.45556137       0.000
   0.42424244  0.50000000 -0.46315405       0.000
   0.43939394  0.50000000 -0.47074674       0.000
   0.45454547  0.50000000 -0.47833943       0.000
   0.46969700  0.50000000 -0.48593213       0.000
   0.48484850  0.50000000 -0.49352481       0.000
   0.50000000  0.50000000 -0.50111749       0.000
   0.48913044  0.48913044 -0.49022364       0.000
   0.47826087  0.47826087 -0.47932978       0.000
   0.46739131  0.46739131 -0.46843592       0.000
   0.45652175  0.45652175 -0.45754207       0.000
   0.44565219  0.44565219 -0.44664822       0.000
   0.43478262  0.43478262 -0.43575435       0.000
   0.42391306  0.42391306 -0.42486050       0.000
   0.41304347  0.41304347 -0.41396662       0.000
   0.40217391  0.40217391 -0.40307276       0.000
   0.39130434  0.39130434 -0.39217890       0.000
   0.38043478  0.38043478 -0.38128505       0.000
   0.36956522  0.36956522 -0.37039119       0.000
   0.35869566  0.35869566 -0.35949734       0.000
   0.34782609  0.34782609 -0.34860348       0.000
   0.33695653  0.33695653 -0.33770962       0.000
   0.32608694  0.32608694 -0.32681574       0.000
   0.31521741  0.31521741 -0.31592192       0.000
   0.30434781  0.30434781 -0.30502802       0.000
   0.29347825  0.29347825 -0.29413417       0.000
   0.28260869  0.28260869 -0.28324032       0.000
   0.27173913  0.27173913 -0.27234646       0.000
   0.26086956  0.26086956 -0.26145260       0.000
   0.25000000  0.25000000 -0.25055875       0.000
   0.23913044  0.23913044 -0.23966489       0.000
   0.22826087  0.22826087 -0.22877103       0.000
   0.21739131  0.21739131 -0.21787718       0.000
   0.20652175  0.20652175 -0.20698332       0.000
   0.19565219  0.19565219 -0.19608947       0.000
   0.18478262  0.18478262 -0.18519561       0.000
   0.17391306  0.17391306 -0.17430175       0.000
   0.16304350  0.16304350 -0.16340790       0.000
   0.15217391  0.15217391 -0.15251402       0.000
   0.14130434  0.14130434 -0.14162015       0.000
   0.13043481  0.13043481 -0.13072633       0.000
   0.11956522  0.11956522 -0.11983245       0.000
   0.10869566  0.10869566 -0.10893859       0.000
   0.09782609  0.09782609 -0.09804473       0.000
   0.08695653  0.08695653 -0.08715088       0.000
   0.07608694  0.07608694 -0.07625699       0.000
   0.06521741  0.06521741 -0.06536317       0.000
   0.05434781  0.05434781 -0.05446928       0.000
   0.04347828  0.04347828 -0.04357545       0.000
   0.03260872  0.03260872 -0.03268160       0.000
   0.02173913  0.02173913 -0.02178772       0.000
   0.01086959  0.01086959 -0.01089388       0.000
   0.00000000  0.00000000  0.00000000       0.000
   0.00000000  0.00000000  0.01927375       0.000
   0.00000000  0.00000000  0.03854750       0.000
   0.00000000  0.00000000  0.05782125       0.000
   0.00000000  0.00000000  0.07709500       0.000
   0.00000000  0.00000000  0.09636875       0.000
   0.00000000  0.00000000  0.11564250       0.000
   0.00000000  0.00000000  0.13491625       0.000
   0.00000000  0.00000000  0.15419000       0.000
   0.00000000  0.00000000  0.17346375       0.000
   0.00000000  0.00000000  0.19273750       0.000
   0.00000000  0.00000000  0.21201125       0.000
   0.00000000  0.00000000  0.23128502       0.000
   0.00000000  0.00000000  0.25055875       0.000
   0.00000000  0.00000000  0.26983251       0.000
   0.00000000  0.00000000  0.28910625       0.000
   0.00000000  0.00000000  0.30838001       0.000
   0.00000000  0.00000000  0.32765377       0.000
   0.00000000  0.00000000  0.34692751       0.000
   0.00000000  0.00000000  0.36620127       0.000
   0.00000000  0.00000000  0.38547500       0.000
   0.00000000  0.00000000  0.40474876       0.000
   0.00000000  0.00000000  0.42402250       0.000
   0.00000000  0.00000000  0.44329626       0.000
   0.00000000  0.00000000  0.46257002       0.000
   0.00000000  0.00000000  0.48184376       0.000
   0.00000000  0.00000000  0.50111749       0.000
 
 k-points in reciprocal lattice and weights: Automatically generated mesh            
   0.00000000  0.00000000  0.00000000       0.007
   0.16666667  0.00000000  0.00000000       0.007
   0.33333333  0.00000000  0.00000000       0.007
   0.50000000  0.00000000  0.00000000       0.007
  -0.33333333  0.00000000  0.00000000       0.007
  -0.16666667  0.00000000  0.00000000       0.007
   0.00000000  0.16666667  0.00000000       0.007
   0.16666667  0.16666667  0.00000000       0.007
   0.33333333  0.16666667  0.00000000       0.007
   0.50000000  0.16666667  0.00000000       0.007
  -0.33333333  0.16666667  0.00000000       0.007
  -0.16666667  0.16666667  0.00000000       0.007
   0.00000000  0.33333333  0.00000000       0.007
   0.16666667  0.33333333  0.00000000       0.007
   0.33333333  0.33333333  0.00000000       0.007
   0.50000000  0.33333333  0.00000000       0.007
  -0.33333333  0.33333333  0.00000000       0.007
  -0.16666667  0.33333333  0.00000000       0.007
   0.00000000  0.50000000  0.00000000       0.007
   0.16666667  0.50000000  0.00000000       0.007
   0.33333333  0.50000000  0.00000000       0.007
   0.50000000  0.50000000  0.00000000       0.007
  -0.33333333  0.50000000  0.00000000       0.007
  -0.16666667  0.50000000  0.00000000       0.007
   0.00000000 -0.33333333  0.00000000       0.007
   0.16666667 -0.33333333  0.00000000       0.007
   0.33333333 -0.33333333  0.00000000       0.007
   0.50000000 -0.33333333  0.00000000       0.007
  -0.33333333 -0.33333333  0.00000000       0.007
  -0.16666667 -0.33333333  0.00000000       0.007
   0.00000000 -0.16666667  0.00000000       0.007
   0.16666667 -0.16666667  0.00000000       0.007
   0.33333333 -0.16666667  0.00000000       0.007
   0.50000000 -0.16666667  0.00000000       0.007
  -0.33333333 -0.16666667  0.00000000       0.007
  -0.16666667 -0.16666667  0.00000000       0.007
   0.00000000  0.00000000  0.25000000       0.007
   0.16666667  0.00000000  0.25000000       0.007
   0.33333333  0.00000000  0.25000000       0.007
   0.50000000  0.00000000  0.25000000       0.007
  -0.33333333  0.00000000  0.25000000       0.007
  -0.16666667  0.00000000  0.25000000       0.007
   0.00000000  0.16666667  0.25000000       0.007
   0.16666667  0.16666667  0.25000000       0.007
   0.33333333  0.16666667  0.25000000       0.007
   0.50000000  0.16666667  0.25000000       0.007
  -0.33333333  0.16666667  0.25000000       0.007
  -0.16666667  0.16666667  0.25000000       0.007
   0.00000000  0.33333333  0.25000000       0.007
   0.16666667  0.33333333  0.25000000       0.007
   0.33333333  0.33333333  0.25000000       0.007
   0.50000000  0.33333333  0.25000000       0.007
  -0.33333333  0.33333333  0.25000000       0.007
  -0.16666667  0.33333333  0.25000000       0.007
   0.00000000  0.50000000  0.25000000       0.007
   0.16666667  0.50000000  0.25000000       0.007
   0.33333333  0.50000000  0.25000000       0.007
   0.50000000  0.50000000  0.25000000       0.007
  -0.33333333  0.50000000  0.25000000       0.007
  -0.16666667  0.50000000  0.25000000       0.007
   0.00000000 -0.33333333  0.25000000       0.007
   0.16666667 -0.33333333  0.25000000       0.007
   0.33333333 -0.33333333  0.25000000       0.007
   0.50000000 -0.33333333  0.25000000       0.007
  -0.33333333 -0.33333333  0.25000000       0.007
  -0.16666667 -0.33333333  0.25000000       0.007
   0.00000000 -0.16666667  0.25000000       0.007
   0.16666667 -0.16666667  0.25000000       0.007
   0.33333333 -0.16666667  0.25000000       0.007
   0.50000000 -0.16666667  0.25000000       0.007
  -0.33333333 -0.16666667  0.25000000       0.007
  -0.16666667 -0.16666667  0.25000000       0.007
   0.00000000  0.00000000  0.50000000       0.007
   0.16666667  0.00000000  0.50000000       0.007
   0.33333333  0.00000000  0.50000000       0.007
   0.50000000  0.00000000  0.50000000       0.007
  -0.33333333  0.00000000  0.50000000       0.007
  -0.16666667  0.00000000  0.50000000       0.007
   0.00000000  0.16666667  0.50000000       0.007
   0.16666667  0.16666667  0.50000000       0.007
   0.33333333  0.16666667  0.50000000       0.007
   0.50000000  0.16666667  0.50000000       0.007
  -0.33333333  0.16666667  0.50000000       0.007
  -0.16666667  0.16666667  0.50000000       0.007
   0.00000000  0.33333333  0.50000000       0.007
   0.16666667  0.33333333  0.50000000       0.007
   0.33333333  0.33333333  0.50000000       0.007
   0.50000000  0.33333333  0.50000000       0.007
  -0.33333333  0.33333333  0.50000000       0.007
  -0.16666667  0.33333333  0.50000000       0.007
   0.00000000  0.50000000  0.50000000       0.007
   0.16666667  0.50000000  0.50000000       0.007
   0.33333333  0.50000000  0.50000000       0.007
   0.50000000  0.50000000  0.50000000       0.007
  -0.33333333  0.50000000  0.50000000       0.007
  -0.16666667  0.50000000  0.50000000       0.007
   0.00000000 -0.33333333  0.50000000       0.007
   0.16666667 -0.33333333  0.50000000       0.007
   0.33333333 -0.33333333  0.50000000       0.007
   0.50000000 -0.33333333  0.50000000       0.007
  -0.33333333 -0.33333333  0.50000000       0.007
  -0.16666667 -0.33333333  0.50000000       0.007
   0.00000000 -0.16666667  0.50000000       0.007
   0.16666667 -0.16666667  0.50000000       0.007
   0.33333333 -0.16666667  0.50000000       0.007
   0.50000000 -0.16666667  0.50000000       0.007
  -0.33333333 -0.16666667  0.50000000       0.007
  -0.16666667 -0.16666667  0.50000000       0.007
   0.00000000  0.00000000 -0.25000000       0.007
   0.16666667  0.00000000 -0.25000000       0.007
   0.33333333  0.00000000 -0.25000000       0.007
   0.50000000  0.00000000 -0.25000000       0.007
  -0.33333333  0.00000000 -0.25000000       0.007
  -0.16666667  0.00000000 -0.25000000       0.007
   0.00000000  0.16666667 -0.25000000       0.007
   0.16666667  0.16666667 -0.25000000       0.007
   0.33333333  0.16666667 -0.25000000       0.007
   0.50000000  0.16666667 -0.25000000       0.007
  -0.33333333  0.16666667 -0.25000000       0.007
  -0.16666667  0.16666667 -0.25000000       0.007
   0.00000000  0.33333333 -0.25000000       0.007
   0.16666667  0.33333333 -0.25000000       0.007
   0.33333333  0.33333333 -0.25000000       0.007
   0.50000000  0.33333333 -0.25000000       0.007
  -0.33333333  0.33333333 -0.25000000       0.007
  -0.16666667  0.33333333 -0.25000000       0.007
   0.00000000  0.50000000 -0.25000000       0.007
   0.16666667  0.50000000 -0.25000000       0.007
   0.33333333  0.50000000 -0.25000000       0.007
   0.50000000  0.50000000 -0.25000000       0.007
  -0.33333333  0.50000000 -0.25000000       0.007
  -0.16666667  0.50000000 -0.25000000       0.007
   0.00000000 -0.33333333 -0.25000000       0.007
   0.16666667 -0.33333333 -0.25000000       0.007
   0.33333333 -0.33333333 -0.25000000       0.007
   0.50000000 -0.33333333 -0.25000000       0.007
  -0.33333333 -0.33333333 -0.25000000       0.007
  -0.16666667 -0.33333333 -0.25000000       0.007
   0.00000000 -0.16666667 -0.25000000       0.007
   0.16666667 -0.16666667 -0.25000000       0.007
   0.33333333 -0.16666667 -0.25000000       0.007
   0.50000000 -0.16666667 -0.25000000       0.007
  -0.33333333 -0.16666667 -0.25000000       0.007
  -0.16666667 -0.16666667 -0.25000000       0.007
   0.00000000  0.00000000  0.00000000       0.000
   0.00000000  0.01515152  0.00000000       0.000
   0.00000000  0.03030303  0.00000000       0.000
   0.00000000  0.04545455  0.00000000       0.000
   0.00000000  0.06060606  0.00000000       0.000
   0.00000000  0.07575758  0.00000000       0.000
   0.00000000  0.09090909  0.00000000       0.000
   0.00000000  0.10606061  0.00000000       0.000
   0.00000000  0.12121212  0.00000000       0.000
   0.00000000  0.13636364  0.00000000       0.000
   0.00000000  0.15151516  0.00000000       0.000
   0.00000000  0.16666667  0.00000000       0.000
   0.00000000  0.18181819  0.00000000       0.000
   0.00000000  0.19696970  0.00000000       0.000
   0.00000000  0.21212122  0.00000000       0.000
   0.00000000  0.22727273  0.00000000       0.000
   0.00000000  0.24242425  0.00000000       0.000
   0.00000000  0.25757575  0.00000000       0.000
   0.00000000  0.27272728  0.00000000       0.000
   0.00000000  0.28787881  0.00000000       0.000
   0.00000000  0.30303031  0.00000000       0.000
   0.00000000  0.31818181  0.00000000       0.000
   0.00000000  0.33333334  0.00000000       0.000
   0.00000000  0.34848487  0.00000000       0.000
   0.00000000  0.36363637  0.00000000       0.000
   0.00000000  0.37878788  0.00000000       0.000
   0.00000000  0.39393941  0.00000000       0.000
   0.00000000  0.40909094  0.00000000       0.000
   0.00000000  0.42424244  0.00000000       0.000
   0.00000000  0.43939394  0.00000000       0.000
   0.00000000  0.45454547  0.00000000       0.000
   0.00000000  0.46969700  0.00000000       0.000
   0.00000000  0.48484850  0.00000000       0.000
   0.00000000  0.50000000  0.00000000       0.000
   0.01515152  0.50000000  0.00000000       0.000
   0.03030303  0.50000000  0.00000000       0.000
   0.04545455  0.50000000  0.00000000       0.000
   0.06060606  0.50000000  0.00000000       0.000
   0.07575758  0.50000000  0.00000000       0.000
   0.09090909  0.50000000  0.00000000       0.000
   0.10606061  0.50000000  0.00000000       0.000
   0.12121212  0.50000000  0.00000000       0.000
   0.13636364  0.50000000  0.00000000       0.000
   0.15151516  0.50000000  0.00000000       0.000
   0.16666667  0.50000000  0.00000000       0.000
   0.18181819  0.50000000  0.00000000       0.000
   0.19696970  0.50000000  0.00000000       0.000
   0.21212122  0.50000000  0.00000000       0.000
   0.22727273  0.50000000  0.00000000       0.000
   0.24242425  0.50000000  0.00000000       0.000
   0.25757575  0.50000000  0.00000000       0.000
   0.27272728  0.50000000  0.00000000       0.000
   0.28787881  0.50000000  0.00000000       0.000
   0.30303031  0.50000000  0.00000000       0.000
   0.31818181  0.50000000  0.00000000       0.000
   0.33333334  0.50000000  0.00000000       0.000
   0.34848487  0.50000000  0.00000000       0.000
   0.36363637  0.50000000  0.00000000       0.000
   0.37878788  0.50000000  0.00000000       0.000
   0.39393941  0.50000000  0.00000000       0.000
   0.40909094  0.50000000  0.00000000       0.000
   0.42424244  0.50000000  0.00000000       0.000
   0.43939394  0.50000000  0.00000000       0.000
   0.45454547  0.50000000  0.00000000       0.000
   0.46969700  0.50000000  0.00000000       0.000
   0.48484850  0.50000000  0.00000000       0.000
   0.50000000  0.50000000  0.00000000       0.000
   0.48913044  0.48913044  0.00000000       0.000
   0.47826087  0.47826087  0.00000000       0.000
   0.46739131  0.46739131  0.00000000       0.000
   0.45652175  0.45652175  0.00000000       0.000
   0.44565219  0.44565219  0.00000000       0.000
   0.43478262  0.43478262  0.00000000       0.000
   0.42391306  0.42391306  0.00000000       0.000
   0.41304347  0.41304347  0.00000000       0.000
   0.40217391  0.40217391  0.00000000       0.000
   0.39130434  0.39130434  0.00000000       0.000
   0.38043478  0.38043478  0.00000000       0.000
   0.36956522  0.36956522  0.00000000       0.000
   0.35869566  0.35869566  0.00000000       0.000
   0.34782609  0.34782609  0.00000000       0.000
   0.33695653  0.33695653  0.00000000       0.000
   0.32608694  0.32608694  0.00000000       0.000
   0.31521741  0.31521741  0.00000000       0.000
   0.30434781  0.30434781  0.00000000       0.000
   0.29347825  0.29347825  0.00000000       0.000
   0.28260869  0.28260869  0.00000000       0.000
   0.27173913  0.27173913  0.00000000       0.000
   0.26086956  0.26086956  0.00000000       0.000
   0.25000000  0.25000000  0.00000000       0.000
   0.23913044  0.23913044  0.00000000       0.000
   0.22826087  0.22826087  0.00000000       0.000
   0.21739131  0.21739131  0.00000000       0.000
   0.20652175  0.20652175  0.00000000       0.000
   0.19565219  0.19565219  0.00000000       0.000
   0.18478262  0.18478262  0.00000000       0.000
   0.17391306  0.17391306  0.00000000       0.000
   0.16304350  0.16304350  0.00000000       0.000
   0.15217391  0.15217391  0.00000000       0.000
   0.14130434  0.14130434  0.00000000       0.000
   0.13043481  0.13043481  0.00000000       0.000
   0.11956522  0.11956522  0.00000000       0.000
   0.10869566  0.10869566  0.00000000       0.000
   0.09782609  0.09782609  0.00000000       0.000
   0.08695653  0.08695653  0.00000000       0.000
   0.07608694  0.07608694  0.00000000       0.000
   0.06521741  0.06521741  0.00000000       0.000
   0.05434781  0.05434781  0.00000000       0.000
   0.04347828  0.04347828  0.00000000       0.000
   0.03260872  0.03260872  0.00000000       0.000
   0.02173913  0.02173913  0.00000000       0.000
   0.01086959  0.01086959  0.00000000       0.000
   0.00000000  0.00000000  0.00000000       0.000
   0.00000000  0.00000000  0.01923077       0.000
   0.00000000  0.00000000  0.03846154       0.000
   0.00000000  0.00000000  0.05769231       0.000
   0.00000000  0.00000000  0.07692308       0.000
   0.00000000  0.00000000  0.09615385       0.000
   0.00000000  0.00000000  0.11538462       0.000
   0.00000000  0.00000000  0.13461539       0.000
   0.00000000  0.00000000  0.15384616       0.000
   0.00000000  0.00000000  0.17307693       0.000
   0.00000000  0.00000000  0.19230770       0.000
   0.00000000  0.00000000  0.21153846       0.000
   0.00000000  0.00000000  0.23076925       0.000
   0.00000000  0.00000000  0.25000000       0.000
   0.00000000  0.00000000  0.26923078       0.000
   0.00000000  0.00000000  0.28846154       0.000
   0.00000000  0.00000000  0.30769232       0.000
   0.00000000  0.00000000  0.32692310       0.000
   0.00000000  0.00000000  0.34615386       0.000
   0.00000000  0.00000000  0.36538464       0.000
   0.00000000  0.00000000  0.38461539       0.000
   0.00000000  0.00000000  0.40384617       0.000
   0.00000000  0.00000000  0.42307693       0.000
[...]
  6        1.319   2.413   0.000   3.731
  7        1.319   2.413   0.000   3.731
  8        1.319   2.413   0.000   3.731
------------------------------------------------
tot        7.263  23.578  38.091  68.932
 


 magnetization (x)
 
# of ion     s       p       d       tot
----------------------------------------
  1        0.000  -0.000  -0.000  -0.000
  2        0.000  -0.000  -0.000  -0.000
  3        0.000  -0.000  -0.000  -0.000
  4       -0.000  -0.000   0.000  -0.000
  5        0.000   0.000   0.000   0.000
  6        0.000   0.000   0.000   0.000
  7        0.000   0.000   0.000   0.000
  8        0.000   0.000   0.000   0.000
------------------------------------------------
tot       -0.000   0.000  -0.000  -0.000
 


 magnetization (y)
 
# of ion     s       p       d       tot
----------------------------------------
  1        0.000  -0.000  -0.000  -0.000
  2        0.000  -0.000  -0.000  -0.000
  3        0.000  -0.000  -0.000  -0.000
  4       -0.000  -0.000   0.000  -0.000
  5        0.000   0.000   0.000   0.000
  6        0.000   0.000   0.000   0.000
  7        0.000   0.000   0.000   0.000
  8        0.000   0.000   0.000   0.000
------------------------------------------------
tot       -0.000   0.000  -0.000  -0.000
 


 magnetization (z)
 
# of ion     s       p       d       tot
----------------------------------------
  1        0.000  -0.000  -0.000  -0.000
  2        0.000  -0.000  -0.000  -0.000
  3        0.000  -0.000  -0.000  -0.000
  4       -0.000  -0.000   0.000  -0.000
  5        0.000   0.000   0.000   0.000
  6        0.000   0.000   0.000   0.000
  7        0.000   0.000   0.000   0.000
  8        0.000   0.000   0.000   0.000
------------------------------------------------
tot       -0.000   0.000  -0.000  -0.000
 
    FORLOC:  cpu time    0.0040: real time    0.0043
    FORHF :  cpu time 2515.4532: real time 2517.2880
    FORNL :  cpu time    0.3920: real time    0.3923
    STRESS:  cpu time   11.8447: real time   11.8527
    FORCOR:  cpu time    0.1720: real time    0.1713
    OFIELD:  cpu time    0.0000: real time    0.0012

  FORCE on cell =-STRESS in cart. coord.  units (eV):
  Direction    XX          YY          ZZ          XY          YZ          ZX
  --------------------------------------------------------------------------------------
  Alpha Z   275.46753   275.46753   275.46753
  Ewald   -2394.86127 -2394.86127 -2366.21278     0.00000     0.00000     0.00000
  Hartree  1686.75912  1686.75915  1717.87738     0.00047     0.00182     0.00186
  E(xc)    -375.94262  -375.94262  -375.94459    -0.00004    -0.00003    -0.00004
  Local    -634.15991  -634.15992  -694.23166    -0.00073    -0.00594    -0.00606
  n-local   660.68235   660.68239   660.94156     0.00047     0.00242     0.00245
  augment   455.52878   455.52878   455.13529    -0.00010    -0.00182    -0.00194
  Kinetic   911.02868   911.02859   911.19730     0.00029     0.00236     0.00249
  Fock            NaN         NaN         NaN         NaN         NaN         NaN
  -------------------------------------------------------------------------------------
  Total           NaN         NaN         NaN         NaN         NaN         NaN
  in kB           NaN         NaN         NaN         NaN         NaN         NaN
  external pressure =         NaN kB  Pullay stress =        0.00 kB


 VOLUME and BASIS-vectors are now :
 -----------------------------------------------------------------------------
  energy-cutoff  :      500.00
  volume of cell :      160.21
      direct lattice vectors                 reciprocal lattice vectors
     5.435300000  0.000000000  0.000000000     0.183982485  0.000000000 -0.092196841
     0.000000000  5.435300000  0.000000000     0.000000000  0.183982485 -0.092196841
     2.717650000  2.717650000  5.423179281     0.000000000  0.000000000  0.184393683

  length of vectors
     5.435300000  5.435300000  6.646962958     0.205790700  0.205790700  0.184393683


 FORCES acting on ions:
    Electron-Ion                     Ewald-Force                    Non-Local-Force
 -----------------------------------------------------------------------------------------------
   -.104E-02 -.470E-03 0.414E-03   0.792E-11 -.246E-11 -.853E-11   0.741E-03 0.322E-03 -.333E-03
   -.687E-03 -.898E-03 0.724E-03   -.757E-11 -.244E-11 0.882E-11   0.502E-03 0.687E-03 -.615E-03
   -.368E-03 -.818E-03 0.516E-03   0.544E-11 -.267E-11 0.605E-11   0.395E-03 0.728E-03 -.437E-03
   -.166E-02 -.138E-02 0.918E-03   -.553E-11 -.253E-11 -.624E-11   0.157E-02 0.132E-02 -.747E-03
   -.636E+02 -.715E+01 0.576E+01   0.613E+02 0.840E+01 -.704E+01   0.221E+01 -.120E+01 0.122E+01
   0.636E+02 0.715E+01 0.576E+01   -.613E+02 -.840E+01 -.704E+01   -.221E+01 0.120E+01 0.122E+01
   0.715E+01 -.636E+02 -.576E+01   -.840E+01 0.613E+02 0.704E+01   0.120E+01 0.221E+01 -.122E+01
   -.715E+01 0.636E+02 -.576E+01   0.840E+01 -.613E+02 0.704E+01   -.120E+01 -.221E+01 -.122E+01
 -----------------------------------------------------------------------------------------------
   -.234E-02 -.224E-02 0.144E-02   -.178E-13 -.711E-14 -.888E-15   0.207E-02 0.217E-02 -.145E-02
 
 
 POSITION                                       TOTAL-FORCE (eV/Angst)
 -----------------------------------------------------------------------------------
      0.00000      0.00000      0.00000              NaN           NaN           NaN
      5.43530      2.71765      2.71159              NaN           NaN           NaN
      2.71765      2.71765      0.00000              NaN           NaN           NaN
      2.71765      5.43530      2.71159              NaN           NaN           NaN
      1.30213      1.38979      1.32105              NaN           NaN           NaN
      4.13317      4.04551      1.32105              NaN           NaN           NaN
      6.76316      4.01978      4.10213              NaN           NaN           NaN
      4.10744      6.85082      4.10213              NaN           NaN           NaN
 -----------------------------------------------------------------------------------
    total drift:                                     NaN           NaN           NaN


--------------------------------------------------------------------------------------------------------



  FREE ENERGIE OF THE ION-ELECTRON SYSTEM (eV)
  ---------------------------------------------------
  free  energy   TOTEN  =       -38.69539447 eV

  energy  without entropy=      -38.69539447  energy(sigma->0) =      -38.69539447
 


--------------------------------------------------------------------------------------------------------


    POTLOK:  cpu time    0.4920: real time    0.4930


--------------------------------------------------------------------------------------------------------


 writing wavefunctions
     LOOP+:  cpu time33370.4895: real time33457.6338
    4ORBIT:  cpu time    0.0000: real time    0.0000

 Spin-Orbit-Coupling matrix elements

 Ion:    1  E_soc:     -0.0583897
 l=   1
     0.0000000    -0.0083212    -0.0083181
    -0.0083212     0.0000000    -0.0083212
    -0.0083181    -0.0083212     0.0000000
 l=   2
     0.0000000    -0.0002755     0.0000000    -0.0002755    -0.0011484
    -0.0002755     0.0000000    -0.0008452    -0.0002677    -0.0002884
     0.0000000    -0.0008452     0.0000000    -0.0008452     0.0000000
    -0.0002755    -0.0002677    -0.0008452     0.0000000    -0.0002884
    -0.0011484    -0.0002884     0.0000000    -0.0002884     0.0000000
 l=   3
     0.0000000     0.0000000     0.0000000     0.0000000     0.0000000     0.0000000     0.0000000
     0.0000000     0.0000000     0.0000000     0.0000000     0.0000000     0.0000000     0.0000000
     0.0000000     0.0000000     0.0000000     0.0000000     0.0000000     0.0000000     0.0000000
     0.0000000     0.0000000     0.0000000     0.0000000     0.0000000     0.0000000     0.0000000
     0.0000000     0.0000000     0.0000000     0.0000000     0.0000000     0.0000000     0.0000000
     0.0000000     0.0000000     0.0000000     0.0000000     0.0000000     0.0000000     0.0000000
     0.0000000     0.0000000     0.0000000     0.0000000     0.0000000     0.0000000     0.0000000

 Ion:    2  E_soc:     -0.0584130
 l=   1
     0.0000000    -0.0083215    -0.0083237
    -0.0083215     0.0000000    -0.0083216
    -0.0083237    -0.0083216     0.0000000
 l=   2
     0.0000000    -0.0002697     0.0000000    -0.0002697    -0.0011138
    -0.0002697     0.0000000    -0.0008755    -0.0002821    -0.0002767
     0.0000000    -0.0008755     0.0000000    -0.0008755     0.0000000
    -0.0002697    -0.0002821    -0.0008755     0.0000000    -0.0002767
    -0.0011138    -0.0002767     0.0000000    -0.0002767     0.0000000
 l=   3
     0.0000000     0.0000000     0.0000000     0.0000000     0.0000000     0.0000000     0.0000000
     0.0000000     0.0000000     0.0000000     0.0000000     0.0000000     0.0000000     0.0000000
     0.0000000     0.0000000     0.0000000     0.0000000     0.0000000     0.0000000     0.0000000
     0.0000000     0.0000000     0.0000000     0.0000000     0.0000000     0.0000000     0.0000000
     0.0000000     0.0000000     0.0000000     0.0000000     0.0000000     0.0000000     0.0000000
     0.0000000     0.0000000     0.0000000     0.0000000     0.0000000     0.0000000     0.0000000
     0.0000000     0.0000000     0.0000000     0.0000000     0.0000000     0.0000000     0.0000000

 Ion:    3  E_soc:     -0.0074231
 l=   1
     0.0000000    -0.0003505    -0.0003503
    -0.0003505     0.0000000    -0.0003505
    -0.0003503    -0.0003505     0.0000000
 l=   2
     0.0000000    -0.0001773     0.0000000    -0.0001773    -0.0007111
    -0.0001773     0.0000000    -0.0005312    -0.0001766    -0.0001778
     0.0000000    -0.0005312     0.0000000    -0.0005312     0.0000000
    -0.0001773    -0.0001766    -0.0005312     0.0000000    -0.0001778
    -0.0007111    -0.0001778     0.0000000    -0.0001778     0.0000000
 l=   3
     0.0000000     0.0000000     0.0000000     0.0000000     0.0000000     0.0000000     0.0000000
     0.0000000     0.0000000     0.0000000     0.0000000     0.0000000     0.0000000     0.0000000
     0.0000000     0.0000000     0.0000000     0.0000000     0.0000000     0.0000000     0.0000000
     0.0000000     0.0000000     0.0000000     0.0000000     0.0000000     0.0000000     0.0000000
     0.0000000     0.0000000     0.0000000     0.0000000     0.0000000     0.0000000     0.0000000
     0.0000000     0.0000000     0.0000000     0.0000000     0.0000000     0.0000000     0.0000000
     0.0000000     0.0000000     0.0000000     0.0000000     0.0000000     0.0000000     0.0000000

 Ion:    4  E_soc:     -0.0862697
 l=   1
     0.0000000    -0.0085733    -0.0085545
    -0.0085733     0.0000000    -0.0085732
    -0.0085545    -0.0085732     0.0000000
 l=   2
     0.0000000    -0.0012053     0.0000000    -0.0012054    -0.0046055
    -0.0012053     0.0000000    -0.0034533    -0.0012075    -0.0011517
     0.0000000    -0.0034533     0.0000000    -0.0034534     0.0000000
    -0.0012054    -0.0012075    -0.0034534     0.0000000    -0.0011517
    -0.0046055    -0.0011517     0.0000000    -0.0011517     0.0000000
 l=   3
     0.0000000     0.0000000     0.0000000     0.0000000     0.0000000     0.0000000     0.0000000
     0.0000000     0.0000000     0.0000000     0.0000000     0.0000000     0.0000000     0.0000000
     0.0000000     0.0000000     0.0000000     0.0000000     0.0000000     0.0000000     0.0000000
     0.0000000     0.0000000     0.0000000     0.0000000     0.0000000     0.0000000     0.0000000
     0.0000000     0.0000000     0.0000000     0.0000000     0.0000000     0.0000000     0.0000000
     0.0000000     0.0000000     0.0000000     0.0000000     0.0000000     0.0000000     0.0000000
     0.0000000     0.0000000     0.0000000     0.0000000     0.0000000     0.0000000     0.0000000

 Ion:    5  E_soc:     -0.0019937
 l=   1
     0.0000000    -0.0003352    -0.0003320
    -0.0003352     0.0000000    -0.0003296
    -0.0003320    -0.0003296     0.0000000
 l=   2
     0.0000000     0.0000000     0.0000000     0.0000000     0.0000000
     0.0000000     0.0000000     0.0000000     0.0000000     0.0000000
     0.0000000     0.0000000     0.0000000     0.0000000     0.0000000
     0.0000000     0.0000000     0.0000000     0.0000000     0.0000000
     0.0000000     0.0000000     0.0000000     0.0000000     0.0000000
 l=   3
     0.0000000     0.0000000     0.0000000     0.0000000     0.0000000     0.0000000     0.0000000
     0.0000000     0.0000000     0.0000000     0.0000000     0.0000000     0.0000000     0.0000000
     0.0000000     0.0000000     0.0000000     0.0000000     0.0000000     0.0000000     0.0000000
     0.0000000     0.0000000     0.0000000     0.0000000     0.0000000     0.0000000     0.0000000
     0.0000000     0.0000000     0.0000000     0.0000000     0.0000000     0.0000000     0.0000000
     0.0000000     0.0000000     0.0000000     0.0000000     0.0000000     0.0000000     0.0000000
     0.0000000     0.0000000     0.0000000     0.0000000     0.0000000     0.0000000     0.0000000

 Ion:    6  E_soc:     -0.0019937
 l=   1
     0.0000000    -0.0003353    -0.0003320
    -0.0003353     0.0000000    -0.0003296
    -0.0003320    -0.0003296     0.0000000
 l=   2
     0.0000000     0.0000000     0.0000000     0.0000000     0.0000000
     0.0000000     0.0000000     0.0000000     0.0000000     0.0000000
     0.0000000     0.0000000     0.0000000     0.0000000     0.0000000
     0.0000000     0.0000000     0.0000000     0.0000000     0.0000000
     0.0000000     0.0000000     0.0000000     0.0000000     0.0000000
 l=   3
     0.0000000     0.0000000     0.0000000     0.0000000     0.0000000     0.0000000     0.0000000
     0.0000000     0.0000000     0.0000000     0.0000000     0.0000000     0.0000000     0.0000000
     0.0000000     0.0000000     0.0000000     0.0000000     0.0000000     0.0000000     0.0000000
     0.0000000     0.0000000     0.0000000     0.0000000     0.0000000     0.0000000     0.0000000
     0.0000000     0.0000000     0.0000000     0.0000000     0.0000000     0.0000000     0.0000000
     0.0000000     0.0000000     0.0000000     0.0000000     0.0000000     0.0000000     0.0000000
     0.0000000     0.0000000     0.0000000     0.0000000     0.0000000     0.0000000     0.0000000

 Ion:    7  E_soc:     -0.0019937
 l=   1
     0.0000000    -0.0003296    -0.0003320
    -0.0003296     0.0000000    -0.0003353
    -0.0003320    -0.0003353     0.0000000
 l=   2
     0.0000000     0.0000000     0.0000000     0.0000000     0.0000000
     0.0000000     0.0000000     0.0000000     0.0000000     0.0000000
     0.0000000     0.0000000     0.0000000     0.0000000     0.0000000
     0.0000000     0.0000000     0.0000000     0.0000000     0.0000000
     0.0000000     0.0000000     0.0000000     0.0000000     0.0000000
 l=   3
     0.0000000     0.0000000     0.0000000     0.0000000     0.0000000     0.0000000     0.0000000
     0.0000000     0.0000000     0.0000000     0.0000000     0.0000000     0.0000000     0.0000000
     0.0000000     0.0000000     0.0000000     0.0000000     0.0000000     0.0000000     0.0000000
     0.0000000     0.0000000     0.0000000     0.0000000     0.0000000     0.0000000     0.0000000
     0.0000000     0.0000000     0.0000000     0.0000000     0.0000000     0.0000000     0.0000000
     0.0000000     0.0000000     0.0000000     0.0000000     0.0000000     0.0000000     0.0000000
     0.0000000     0.0000000     0.0000000     0.0000000     0.0000000     0.0000000     0.0000000

 Ion:    8  E_soc:     -0.0019937
 l=   1
     0.0000000    -0.0003296    -0.0003320
    -0.0003296     0.0000000    -0.0003353
    -0.0003320    -0.0003353     0.0000000
 l=   2
     0.0000000     0.0000000     0.0000000     0.0000000     0.0000000
     0.0000000     0.0000000     0.0000000     0.0000000     0.0000000
     0.0000000     0.0000000     0.0000000     0.0000000     0.0000000
     0.0000000     0.0000000     0.0000000     0.0000000     0.0000000
     0.0000000     0.0000000     0.0000000     0.0000000     0.0000000
 l=   3
     0.0000000     0.0000000     0.0000000     0.0000000     0.0000000     0.0000000     0.0000000
     0.0000000     0.0000000     0.0000000     0.0000000     0.0000000     0.0000000     0.0000000
     0.0000000     0.0000000     0.0000000     0.0000000     0.0000000     0.0000000     0.0000000
     0.0000000     0.0000000     0.0000000     0.0000000     0.0000000     0.0000000     0.0000000
     0.0000000     0.0000000     0.0000000     0.0000000     0.0000000     0.0000000     0.0000000
     0.0000000     0.0000000     0.0000000     0.0000000     0.0000000     0.0000000     0.0000000
     0.0000000     0.0000000     0.0000000     0.0000000     0.0000000     0.0000000     0.0000000
 


 total charge     
 
# of ion     s       p       d       tot
----------------------------------------
  1        0.208   6.164   9.066  15.438
  2        0.206   6.161   9.067  15.435
  3        0.490   0.461   9.836  10.787
  4        1.083   1.142  10.122  12.347
  5        1.319   2.413   0.000   3.731
  6        1.319   2.413   0.000   3.731
  7        1.319   2.413   0.000   3.731
  8        1.319   2.413   0.000   3.731
------------------------------------------------
tot        7.263  23.578  38.091  68.932
 


 magnetization (x)
 
# of ion     s       p       d       tot
----------------------------------------
  1        0.000  -0.000  -0.000  -0.000
  2        0.000  -0.000  -0.000  -0.000
  3        0.000  -0.000  -0.000  -0.000
  4       -0.000  -0.000   0.000  -0.000
  5        0.000   0.000   0.000   0.000
  6        0.000   0.000   0.000   0.000
  7        0.000   0.000   0.000   0.000
  8        0.000   0.000   0.000   0.000
------------------------------------------------
tot       -0.000   0.000  -0.000  -0.000
 


 magnetization (y)
 
# of ion     s       p       d       tot
----------------------------------------
  1        0.000  -0.000  -0.000  -0.000
  2        0.000  -0.000  -0.000  -0.000
  3        0.000  -0.000  -0.000  -0.000
  4       -0.000  -0.000   0.000  -0.000
  5        0.000   0.000   0.000   0.000
  6        0.000   0.000   0.000   0.000
  7        0.000   0.000   0.000   0.000
  8        0.000   0.000   0.000   0.000
------------------------------------------------
tot       -0.000   0.000  -0.000  -0.000
 


 magnetization (z)
 
# of ion     s       p       d       tot
----------------------------------------
  1        0.000  -0.000  -0.000  -0.000
  2        0.000  -0.000  -0.000  -0.000
  3        0.000  -0.000  -0.000  -0.000
  4       -0.000  -0.000   0.000  -0.000
  5        0.000   0.000   0.000   0.000
  6        0.000   0.000   0.000   0.000
  7        0.000   0.000   0.000   0.000
  8        0.000   0.000   0.000   0.000
------------------------------------------------
tot       -0.000   0.000  -0.000  -0.000
 

 total amount of memory used by VASP on root node  1297768. kBytes
========================================================================

   base      :      30000. kBytes
   nonl-proj :     669510. kBytes
   fftplans  :       2589. kBytes
   grid      :      18186. kBytes
   one-center:        497. kBytes
   HF        :        259. kBytes
   nonlr-proj:       2941. kBytes
   wavefun   :     573786. kBytes
 
  
  
 General timing and accounting informations for this job:
 ========================================================
  
                  Total CPU time used (sec):    33697.918
                            User time (sec):    33593.499
                          System time (sec):      104.419
                         Elapsed time (sec):    33804.156
  
                   Maximum memory used (kb):     1710328.
                   Average memory used (kb):           0.
  
                          Minor page faults:     24133862
                          Major page faults:            0
                 Voluntary context switches:         2693
