 vasp.5.4.1 24Jun15 (build Nov 25 2015 16:01:35) complex                        
  
 executed on         CrayXC-Intel date 2016.05.26  08:33:20
 running on   96 total cores
 distrk:  each k-point on   24 cores,    4 groups
 distr:  one band on NCORES_PER_BAND=   6 cores,    4 groups


--------------------------------------------------------------------------------------------------------


 INCAR:
 POTCAR:   PAW Cd 03Mar1998                       
 POTCAR:   PAW Te 03Oct2001                       

 ----------------------------------------------------------------------------- 
|                                                                             |
|           W    W    AA    RRRRR   N    N  II  N    N   GGGG   !!!           |
|           W    W   A  A   R    R  NN   N  II  NN   N  G    G  !!!           |
|           W    W  A    A  R    R  N N  N  II  N N  N  G       !!!           |
|           W WW W  AAAAAA  RRRRR   N  N N  II  N  N N  G  GGG   !            |
|           WW  WW  A    A  R   R   N   NN  II  N   NN  G    G                |
|           W    W  A    A  R    R  N    N  II  N    N   GGGG   !!!           |
|                                                                             |
|      You have enabled k-point parallelism (KPAR>1).                         |
|      This developmental code was originally  written by Paul Kent at ORNL,  |
|      and carefully double checked in Vienna.                                |
|      GW as well as linear response parallelism added by Martijn Marsman     |
|      and Georg Kresse.                                                      |
|      Carefully verify results versus KPAR=1.                                |
|      Report problems to Paul Kent and Vienna.                               |
|                                                                             |
 ----------------------------------------------------------------------------- 

 POTCAR:   PAW Cd 03Mar1998                       
   VRHFIN =Cd : s2 d10                                                          
   LEXCH  = CA                                                                  
   EATOM  =  1296.0499 eV,   95.2570 Ry                                         
                                                                                
   TITEL  = PAW Cd 03Mar1998                                                    
   LULTRA =        F    use ultrasoft PP ?                                      
   IUNSCR =        1    unscreen: 0-lin 1-nonlin 2-no                           
   RPACOR =    2.000    partial core radius                                     
   POMASS =  112.411; ZVAL   =   12.000    mass and valenz                      
   RCORE  =    2.300    outmost cutoff radius                                   
   RWIGS  =    2.980; RWIGS  =    1.577    wigner-seitz radius (au A)           
   ENMAX  =  274.265; ENMIN  =  205.699 eV                                      
   RCLOC  =    2.054    cutoff for local pot                                    
   LCOR   =        T    correct aug charges                                     
   LPAW   =        T    paw PP                                                  
   EAUG   =  456.106                                                            
   DEXC   =    -.017                                                            
   RMAX   =    2.784    core radius for proj-oper                               
   RAUG   =    1.300    factor for augmentation sphere                          
   RDEP   =    2.450    core radius for depl-charge                             
   QCUT   =   -4.490; QGAM   =    8.980    optimization parameters              
                                                                                
   Description                                                                  
     l     E      TYP  RCUT    TYP  RCUT                                        
     2   .000     23  2.300                                                     
     2   .000     23  2.300                                                     
     0   .000     23  2.300                                                     
     0   .000     23  2.300                                                     
     1  -.200     23  2.300                                                     
     1   .000     23  2.300                                                     
     3   .000      7   .000                                                     
  local pseudopotential read in
  partial core-charges read in
  atomic valenz-charges read in
  non local Contribution for L=           2  read in
    real space projection operators read in
  non local Contribution for L=           2  read in
    real space projection operators read in
  non local Contribution for L=           0  read in
    real space projection operators read in
  non local Contribution for L=           0  read in
    real space projection operators read in
  non local Contribution for L=           1  read in
    real space projection operators read in
  non local Contribution for L=           1  read in
    real space projection operators read in
    PAW grid and wavefunctions read in
 
   number of l-projection  operators is LMAX  =           6
   number of lm-projection operators is LMMAX =          18
 
 POTCAR:   PAW Te 03Oct2001                       
   VRHFIN =Te: s2p4                                                             
   LEXCH  = CA                                                                  
   EATOM  =   225.3402 eV,   16.5620 Ry                                         
                                                                                
   TITEL  = PAW Te 03Oct2001                                                    
   LULTRA =        F    use ultrasoft PP ?                                      
   IUNSCR =        1    unscreen: 0-lin 1-nonlin 2-no                           
   RPACOR =    2.200    partial core radius                                     
   POMASS =  127.600; ZVAL   =    6.000    mass and valenz                      
   RCORE  =    2.300    outmost cutoff radius                                   
   RWIGS  =    2.900; RWIGS  =    1.535    wigner-seitz radius (au A)           
   ENMAX  =  175.144; ENMIN  =  131.358 eV                                      
   ICORE  =        3    local potential                                         
   LCOR   =        T    correct aug charges                                     
   LPAW   =        T    paw PP                                                  
   EAUG   =  368.792                                                            
   DEXC   =    -.131                                                            
   RMAX   =    3.484    core radius for proj-oper                               
   RAUG   =    1.300    factor for augmentation sphere                          
   RDEP   =    2.397    radius for radial grids                                 
   QCUT   =   -3.588; QGAM   =    7.176    optimization parameters              
                                                                                
   Description                                                                  
     l     E      TYP  RCUT    TYP  RCUT                                        
     0   .000     23  2.300                                                     
     0   .000     23  2.300                                                     
     1   .000     23  2.300                                                     
     1   .000     23  2.300                                                     
     2   .000     23  2.300                                                     
     3  -.100     23  2.300                                                     
  local pseudopotential read in
  partial core-charges read in
  atomic valenz-charges read in
  non local Contribution for L=           0  read in
    real space projection operators read in
  non local Contribution for L=           0  read in
    real space projection operators read in
  non local Contribution for L=           1  read in
    real space projection operators read in
  non local Contribution for L=           1  read in
    real space projection operators read in
  non local Contribution for L=           2  read in
    real space projection operators read in
    PAW grid and wavefunctions read in
 
   number of l-projection  operators is LMAX  =           5
   number of lm-projection operators is LMMAX =          13
 
 PAW Cd 03Mar1998                       :
 energy of atom  1       EATOM=-1296.0499
 kinetic energy error for atom=    0.0063 (will be added to EATOM!!)
 PAW Te 03Oct2001                       :
 energy of atom  2       EATOM= -225.3402
 kinetic energy error for atom=    0.0007 (will be added to EATOM!!)
 
 
 POSCAR: CdTe (ICSD, 295K, Rabadanov 2001)       
  positions in direct lattice
  velocities in cartesian coordinates
 exchange correlation table for  LEXCH =        2
   RHO(1)=    0.500       N(1)  =     2000
   RHO(2)=  100.500       N(2)  =     4000
 


--------------------------------------------------------------------------------------------------------


 ion  position               nearest neighbor table
   1  0.000  0.000  0.000-   2 2.81   2 2.81   2 2.81   2 2.81
   2  0.250  0.250  0.250-   1 2.81   1 2.81   1 2.81   1 2.81
 
  LATTYP: Found a face centered cubic cell.
 ALAT       =     6.4827000000
  
  Lattice vectors:
  
 A1 = (   3.2413500000,   3.2413500000,   0.0000000000)
 A2 = (   3.2413500000,   0.0000000000,  -3.2413500000)
 A3 = (   0.0000000000,   3.2413500000,  -3.2413500000)


Analysis of symmetry for initial positions (statically):
=====================================================================
 Subroutine PRICEL returns:
 Original cell was already a primitive cell.
 

 Routine SETGRP: Setting up the symmetry group for a 
 face centered cubic supercell.


 Subroutine GETGRP returns: Found 24 space group operations
 (whereof 24 operations were pure point group operations)
 out of a pool of 48 trial point group operations.


The static configuration has the point symmetry T_d .


Analysis of symmetry for dynamics (positions and initial velocities):
=====================================================================
 Subroutine PRICEL returns:
 Original cell was already a primitive cell.
 

 Routine SETGRP: Setting up the symmetry group for a 
 face centered cubic supercell.


 Subroutine GETGRP returns: Found 24 space group operations
 (whereof 24 operations were pure point group operations)
 out of a pool of 48 trial point group operations.


The dynamic configuration has the point symmetry T_d .


 Subroutine INISYM returns: Found 24 space group operations
 (whereof 24 operations are pure point group operations),
 and found     1 'primitive' translations

 
 
 KPOINTS: Automatically generated mesh SCF: 16 ste
  k-points in reciprocal lattice
Space group operators:
 irot       det(A)        alpha          n_x          n_y          n_z        tau_x        tau_y        tau_z
    1     1.000000     0.000000     1.000000     0.000000     0.000000     0.000000     0.000000     0.000000
    2     1.000000   120.000000    -0.577350    -0.577350     0.577350     0.000000     0.000000     0.000000
    3     1.000000   120.000000     0.577350     0.577350    -0.577350     0.000000     0.000000     0.000000
    4    -1.000000    90.000000    -1.000000     0.000000     0.000000     0.000000     0.000000     0.000000
    5    -1.000000   180.000000     0.707107     0.707107     0.000000     0.000000     0.000000     0.000000
    6    -1.000000    90.000000     0.000000     1.000000     0.000000     0.000000     0.000000     0.000000
    7     1.000000   180.000000     1.000000     0.000000     0.000000     0.000000     0.000000     0.000000
    8     1.000000   120.000000     0.577350     0.577350     0.577350     0.000000     0.000000     0.000000
    9     1.000000   120.000000    -0.577350     0.577350     0.577350     0.000000     0.000000     0.000000
   10    -1.000000    90.000000     1.000000     0.000000     0.000000     0.000000     0.000000     0.000000
   11    -1.000000    90.000000     0.000000     0.000000     1.000000     0.000000     0.000000     0.000000
   12    -1.000000   180.000000     0.707107     0.000000    -0.707107     0.000000     0.000000     0.000000
   13     1.000000   120.000000     0.577350    -0.577350    -0.577350     0.000000     0.000000     0.000000
   14     1.000000   120.000000     0.577350    -0.577350     0.577350     0.000000     0.000000     0.000000
   15     1.000000   180.000000     0.000000     0.000000     1.000000     0.000000     0.000000     0.000000
   16    -1.000000    90.000000     0.000000    -1.000000     0.000000     0.000000     0.000000     0.000000
   17    -1.000000   180.000000     0.000000    -0.707107     0.707107     0.000000     0.000000     0.000000
   18    -1.000000    90.000000     0.000000     0.000000    -1.000000     0.000000     0.000000     0.000000
   19     1.000000   120.000000    -0.577350    -0.577350    -0.577350     0.000000     0.000000     0.000000
   20     1.000000   180.000000     0.000000     1.000000     0.000000     0.000000     0.000000     0.000000
   21     1.000000   120.000000    -0.577350     0.577350    -0.577350     0.000000     0.000000     0.000000
   22    -1.000000   180.000000     0.707107    -0.707107     0.000000     0.000000     0.000000     0.000000
   23    -1.000000   180.000000     0.000000     0.707107     0.707107     0.000000     0.000000     0.000000
   24    -1.000000   180.000000     0.707107     0.000000     0.707107     0.000000     0.000000     0.000000


--------------------------------------------------------------------------------------------------------




 Dimension of arrays:
   k-points           NKPTS =   1012   k-points in BZ     NKDIM =   1012   number of bands    NBANDS=     16
   number of dos      NEDOS =    301   number of ions     NIONS =      2
   non local maximal  LDIM  =      6   non local SUM 2l+1 LMDIM =     18
   total plane-waves  NPLWV =  46656
   max r-space proj   IRMAX =      1   max aug-charges    IRDMAX=  40037
   dimension x,y,z NGX =    36 NGY =   36 NGZ =   36
   dimension x,y,z NGXF=    72 NGYF=   72 NGZF=   72
   support grid    NGXF=    72 NGYF=   72 NGZF=   72
   ions per type =               1   1
 NGX,Y,Z   is equivalent  to a cutoff of  13.06, 13.06, 13.06 a.u.
 NGXF,Y,Z  is equivalent  to a cutoff of  26.11, 26.11, 26.11 a.u.


 I would recommend the setting:
   dimension x,y,z NGX =    33 NGY =   33 NGZ =   33
 SYSTEM =  Name                                    
 POSCAR =  CdTe (ICSD, 295K, Rabadanov 2001)       

 Startparameter for this run:
   NWRITE =      2    write-flag & timer
   PREC   = accura    normal or accurate (medium, high low for compatibility)
   ISTART =      0    job   : 0-new  1-cont  2-samecut
   ICHARG =     11    charge: 1-file 2-atom 10-const
   ISPIN  =      1    spin polarized calculation?
   LNONCOLLINEAR =      F non collinear calculations
   LSORBIT =      F    spin-orbit coupling
   INIWAV =      1    electr: 0-lowe 1-rand  2-diag
   LASPH  =      F    aspherical Exc in radial PAW
   METAGGA=      F    non-selfconsistent MetaGGA calc.

 Electronic Relaxation 1
   ENCUT  =  500.0 eV  36.75 Ry    6.06 a.u.   8.36  8.36  8.36*2*pi/ulx,y,z
   ENINI  =  500.0     initial cutoff
   ENAUG  =  456.1 eV  augmentation charge cutoff
   NELM   =     60;   NELMIN=  2; NELMDL=  0     # of ELM steps 
   EDIFF  = 0.1E-05   stopping-criterion for ELM
   LREAL  =      F    real-space projection
   NLSPLINE    = F    spline interpolate recip. space projectors
   LCOMPAT=      F    compatible to vasp.4.4
   GGA_COMPAT  = T    GGA compatible to vasp.4.4-vasp.4.6
   LMAXPAW     = -100 max onsite density
   LMAXMIX     =    2 max onsite mixed and CHGCAR
   VOSKOWN=      0    Vosko Wilk Nusair interpolation
   ROPT   =    0.00000   0.00000
 Ionic relaxation
   EDIFFG = -.5E-02   stopping-criterion for IOM
   NSW    =      1    number of steps for IOM
   NBLOCK =      1;   KBLOCK =      1    inner block; outer block 
   IBRION =      2    ionic relax: 0-MD 1-quasi-New 2-CG
   NFREE  =      1    steps in history (QN), initial steepest desc. (CG)
   ISIF   =      3    stress and relaxation
   IWAVPR =     11    prediction:  0-non 1-charg 2-wave 3-comb
   ISYM   =      2    0-nonsym 1-usesym 2-fastsym
   LCORR  =      T    Harris-Foulkes like correction to forces

   POTIM  = 0.5000    time-step for ionic-motion
   TEIN   =    0.0    initial temperature
   TEBEG  =    0.0;   TEEND  =   0.0 temperature during run
   SMASS  =  -3.00    Nose mass-parameter (am)
   estimated Nose-frequenzy (Omega)   =  0.10E-29 period in steps =****** mass=  -0.480E-27a.u.
   SCALEE = 1.0000    scale energy and forces
   NPACO  =    256;   APACO  = 16.0  distance and # of slots for P.C.
   PSTRESS=    0.0 pullay stress

  Mass of Ions in am
   POMASS = 112.41127.60
  Ionic Valenz
   ZVAL   =  12.00  6.00
  Atomic Wigner-Seitz radii
   RWIGS  =  -1.00 -1.00
  virtual crystal weights 
   VCA    =   1.00  1.00
   NELECT =      18.0000    total number of electrons
   NUPDOWN=      -1.0000    fix difference up-down

 DOS related values:
   EMIN   =  10.00;   EMAX   =-10.00  energy-range for DOS
   EFERMI =   0.00
   ISMEAR =     0;   SIGMA  =   0.01  broadening in eV -4-tet -1-fermi 0-gaus

 Electronic relaxation 2 (details)
   IALGO  =     38    algorithm
   LDIAG  =      T    sub-space diagonalisation (order eigenvalues)
   LSUBROT=      F    optimize rotation matrix (better conditioning)
   TURBO    =      0    0=normal 1=particle mesh
   IRESTART =      0    0=no restart 2=restart with 2 vectors
   NREBOOT  =      0    no. of reboots
   NMIN     =      0    reboot dimension
   EREF     =   0.00    reference energy to select bands
   IMIX   =      4    mixing-type and parameters
     AMIX     =   0.40;   BMIX     =  1.00
     AMIX_MAG =   1.60;   BMIX_MAG =  1.00
     AMIN     =   0.01
     WC   =   100.;   INIMIX=   1;  MIXPRE=   1;  MAXMIX= -45

 Intra band minimization:
   WEIMIN = 0.0010     energy-eigenvalue tresh-hold
   EBREAK =  0.16E-07  absolut break condition
   DEPER  =   0.30     relativ break condition  

   TIME   =   0.40     timestep for ELM

  volume/ion in A,a.u.               =      34.05       229.81
  Fermi-wavevector in a.u.,A,eV,Ry     =   1.050581  1.985311 15.017042  1.103721
  Thomas-Fermi vector in A             =   2.185590
 
 Write flags
   LWAVE  =      T    write WAVECAR
   LCHARG =      T    write CHGCAR
   LVTOT  =      F    write LOCPOT, total local potential
   LVHAR  =      F    write LOCPOT, Hartree potential only
   LELF   =      F    write electronic localiz. function (ELF)
   LORBIT =     10    0 simple, 1 ext, 2 COOP (PROOUT)


 Dipole corrections
   LMONO  =      F    monopole corrections only (constant potential shift)
   LDIPOL =      F    correct potential (dipole corrections)
   IDIPOL =      0    1-x, 2-y, 3-z, 4-all directions 
   EPSILON=  1.0000000 bulk dielectric constant

 Core level calculations are selected ICORELEVEL =  1
 Exchange correlation treatment:
   GGA     =    --    GGA type
   LEXCH   =     2    internal setting for exchange type
   VOSKOWN=      0    Vosko Wilk Nusair interpolation
   LHFCALC =     F    Hartree Fock is set to
   LHFONE  =     F    Hartree Fock one center treatment
   AEXX    =    0.0000 exact exchange contribution

 Linear response parameters
   LEPSILON=     F    determine dielectric tensor
   LRPA    =     F    only Hartree local field effects (RPA)
   LNABLA  =     F    use nabla operator in PAW spheres
   LVEL    =     F    velocity operator in full k-point grid
   LINTERFAST=   F  fast interpolation
   KINTER  =     0    interpolate to denser k-point grid
   CSHIFT  =0.1000    complex shift for real part using Kramers Kronig
   OMEGAMAX=  -1.0    maximum frequency
   DEG_THRESHOLD= 0.2000000E-02 threshold for treating states as degnerate
   RTIME   =    0.100 relaxation time in fs

 Orbital magnetization related:
   ORBITALMAG=     F  switch on orbital magnetization
   LCHIMAG   =     F  perturbation theory with respect to B field
   DQ        =  0.001000  dq finite difference perturbation B field



--------------------------------------------------------------------------------------------------------


 conjugate gradient relaxation of ions
 charge density and potential remain constant during run
 non-spin polarized calculation
 Variant of blocked Davidson
 Davidson routine will perform the subspace rotation
 perform sub-space diagonalisation
    after iterative eigenvector-optimisation
 no mixing
 using additional bands            7
 reciprocal scheme for non local part
 use partial core corrections
 calculate Harris-corrections to forces 
   (improved forces if not selfconsistent)
 use of overlap-Matrix (Vanderbilt PP)
 Gauss-broadening in eV      SIGMA  =   0.01


--------------------------------------------------------------------------------------------------------


  energy-cutoff  :      500.00
  volume of cell :       68.11
      direct lattice vectors                 reciprocal lattice vectors
     3.241350000  3.241350000  0.000000000     0.154256714  0.154256714  0.154256714
     3.241350000  0.000000000 -3.241350000     0.154256714 -0.154256714 -0.154256714
     0.000000000  3.241350000 -3.241350000    -0.154256714  0.154256714 -0.154256714

  length of vectors
     4.583961130  4.583961130  4.583961130     0.267180466  0.267180466  0.267180466


 
 k-points in units of 2pi/SCALE and weight: Automatically generated mesh SCF: 16 ste
   0.00000000  0.00000000  0.00000000       0.005
   0.16666667  0.16666667  0.16666667       0.037
   0.33333333  0.33333333  0.33333333       0.037
   0.50000000  0.50000000  0.50000000       0.019
   0.33333333  0.00000000  0.00000000       0.028
   0.50000000  0.16666667  0.16666667       0.111
   0.66666667  0.33333333  0.33333333       0.111
  -0.16666667 -0.50000000 -0.50000000       0.111
   0.00000000 -0.33333333 -0.33333333       0.056
   0.66666667  0.00000000  0.00000000       0.028
   0.83333333  0.16666667  0.16666667       0.111
   0.00000000 -0.66666667 -0.66666667       0.056
   1.00000000  0.00000000  0.00000000       0.014
   0.66666667  0.33333333  0.00000000       0.111
  -0.16666667 -0.50000000 -0.83333333       0.111
   0.00000000 -0.66666667 -1.00000000       0.056
   0.00000000  0.00000000  0.00000000       0.000
   0.00000000  0.00420168  0.00000000       0.000
   0.00000000  0.00840336  0.00000000       0.000
   0.00000000  0.01260504  0.00000000       0.000
   0.00000000  0.01680672  0.00000000       0.000
   0.00000000  0.02100840  0.00000000       0.000
   0.00000000  0.02521008  0.00000000       0.000
   0.00000000  0.02941176  0.00000000       0.000
   0.00000000  0.03361344  0.00000000       0.000
   0.00000000  0.03781512  0.00000000       0.000
   0.00000000  0.04201680  0.00000000       0.000
   0.00000000  0.04621848  0.00000000       0.000
   0.00000000  0.05042016  0.00000000       0.000
   0.00000000  0.05462184  0.00000000       0.000
   0.00000000  0.05882352  0.00000000       0.000
   0.00000000  0.06302520  0.00000000       0.000
   0.00000000  0.06722688  0.00000000       0.000
   0.00000000  0.07142858  0.00000000       0.000
   0.00000000  0.07563024  0.00000000       0.000
   0.00000000  0.07983194  0.00000000       0.000
   0.00000000  0.08403360  0.00000000       0.000
   0.00000000  0.08823530  0.00000000       0.000
   0.00000000  0.09243698  0.00000000       0.000
   0.00000000  0.09663866  0.00000000       0.000
   0.00000000  0.10084034  0.00000000       0.000
   0.00000000  0.10504202  0.00000000       0.000
   0.00000000  0.10924370  0.00000000       0.000
   0.00000000  0.11344538  0.00000000       0.000
   0.00000000  0.11764706  0.00000000       0.000
   0.00000000  0.12184874  0.00000000       0.000
   0.00000000  0.12605042  0.00000000       0.000
   0.00000000  0.13025210  0.00000000       0.000
   0.00000000  0.13445378  0.00000000       0.000
   0.00000000  0.13865546  0.00000000       0.000
   0.00000000  0.14285714  0.00000000       0.000
   0.00000000  0.14705882  0.00000000       0.000
   0.00000000  0.15126050  0.00000000       0.000
   0.00000000  0.15546220  0.00000000       0.000
   0.00000000  0.15966388  0.00000000       0.000
   0.00000000  0.16386556  0.00000000       0.000
   0.00000000  0.16806722  0.00000000       0.000
   0.00000000  0.17226890  0.00000000       0.000
   0.00000000  0.17647060  0.00000000       0.000
   0.00000000  0.18067228  0.00000000       0.000
   0.00000000  0.18487396  0.00000000       0.000
   0.00000000  0.18907564  0.00000000       0.000
   0.00000000  0.19327732  0.00000000       0.000
   0.00000000  0.19747900  0.00000000       0.000
   0.00000000  0.20168068  0.00000000       0.000
   0.00000000  0.20588234  0.00000000       0.000
   0.00000000  0.21008402  0.00000000       0.000
   0.00000000  0.21428570  0.00000000       0.000
   0.00000000  0.21848740  0.00000000       0.000
   0.00000000  0.22268908  0.00000000       0.000
   0.00000000  0.22689076  0.00000000       0.000
   0.00000000  0.23109244  0.00000000       0.000
   0.00000000  0.23529412  0.00000000       0.000
   0.00000000  0.23949580  0.00000000       0.000
   0.00000000  0.24369748  0.00000000       0.000
   0.00000000  0.24789914  0.00000000       0.000
   0.00000000  0.25210082  0.00000000       0.000
   0.00000000  0.25630250  0.00000000       0.000
   0.00000000  0.26050418  0.00000000       0.000
   0.00000000  0.26470586  0.00000000       0.000
   0.00000000  0.26890754  0.00000000       0.000
   0.00000000  0.27310926  0.00000000       0.000
   0.00000000  0.27731094  0.00000000       0.000
   0.00000000  0.28151262  0.00000000       0.000
   0.00000000  0.28571430  0.00000000       0.000
   0.00000000  0.28991598  0.00000000       0.000
   0.00000000  0.29411762  0.00000000       0.000
   0.00000000  0.29831930  0.00000000       0.000
   0.00000000  0.30252100  0.00000000       0.000
   0.00000000  0.30672268  0.00000000       0.000
   0.00000000  0.31092438  0.00000000       0.000
   0.00000000  0.31512606  0.00000000       0.000
   0.00000000  0.31932774  0.00000000       0.000
   0.00000000  0.32352942  0.00000000       0.000
   0.00000000  0.32773110  0.00000000       0.000
   0.00000000  0.33193278  0.00000000       0.000
   0.00000000  0.33613444  0.00000000       0.000
   0.00000000  0.34033612  0.00000000       0.000
   0.00000000  0.34453780  0.00000000       0.000
   0.00000000  0.34873948  0.00000000       0.000
   0.00000000  0.35294118  0.00000000       0.000
   0.00000000  0.35714286  0.00000000       0.000
   0.00000000  0.36134454  0.00000000       0.000
   0.00000000  0.36554620  0.00000000       0.000
   0.00000000  0.36974790  0.00000000       0.000
   0.00000000  0.37394956  0.00000000       0.000
   0.00000000  0.37815126  0.00000000       0.000
   0.00000000  0.38235292  0.00000000       0.000
   0.00000000  0.38655462  0.00000000       0.000
   0.00000000  0.39075628  0.00000000       0.000
   0.00000000  0.39495798  0.00000000       0.000
   0.00000000  0.39915966  0.00000000       0.000
   0.00000000  0.40336136  0.00000000       0.000
   0.00000000  0.40756304  0.00000000       0.000
   0.00000000  0.41176468  0.00000000       0.000
   0.00000000  0.41596640  0.00000000       0.000
   0.00000000  0.42016804  0.00000000       0.000
   0.00000000  0.42436976  0.00000000       0.000
   0.00000000  0.42857140  0.00000000       0.000
   0.00000000  0.43277312  0.00000000       0.000
   0.00000000  0.43697480  0.00000000       0.000
   0.00000000  0.44117648  0.00000000       0.000
   0.00000000  0.44537816  0.00000000       0.000
   0.00000000  0.44957980  0.00000000       0.000
   0.00000000  0.45378152  0.00000000       0.000
   0.00000000  0.45798316  0.00000000       0.000
   0.00000000  0.46218488  0.00000000       0.000
   0.00000000  0.46638652  0.00000000       0.000
   0.00000000  0.47058824  0.00000000       0.000
   0.00000000  0.47478992  0.00000000       0.000
   0.00000000  0.47899160  0.00000000       0.000
   0.00000000  0.48319328  0.00000000       0.000
   0.00000000  0.48739496  0.00000000       0.000
   0.00000000  0.49159664  0.00000000       0.000
   0.00000000  0.49579828  0.00000000       0.000
   0.00000000  0.50000000  0.00000000       0.000
   0.00000000  0.50420166  0.00000000       0.000
   0.00000000  0.50840336  0.00000000       0.000
   0.00000000  0.51260502  0.00000000       0.000
   0.00000000  0.51680672  0.00000000       0.000
   0.00000000  0.52100838  0.00000000       0.000
   0.00000000  0.52521008  0.00000000       0.000
   0.00000000  0.52941174  0.00000000       0.000
   0.00000000  0.53361344  0.00000000       0.000
   0.00000000  0.53781510  0.00000000       0.000
   0.00000000  0.54201680  0.00000000       0.000
   0.00000000  0.54621852  0.00000000       0.000
   0.00000000  0.55042016  0.00000000       0.000
   0.00000000  0.55462188  0.00000000       0.000
   0.00000000  0.55882352  0.00000000       0.000
   0.00000000  0.56302524  0.00000000       0.000
   0.00000000  0.56722688  0.00000000       0.000
   0.00000000  0.57142860  0.00000000       0.000
   0.00000000  0.57563024  0.00000000       0.000
   0.00000000  0.57983196  0.00000000       0.000
   0.00000000  0.58403360  0.00000000       0.000
   0.00000000  0.58823526  0.00000000       0.000
   0.00000000  0.59243696  0.00000000       0.000
   0.00000000  0.59663862  0.00000000       0.000
   0.00000000  0.60084034  0.00000000       0.000
   0.00000000  0.60504198  0.00000000       0.000
   0.00000000  0.60924370  0.00000000       0.000
   0.00000000  0.61344534  0.00000000       0.000
   0.00000000  0.61764706  0.00000000       0.000
   0.00000000  0.62184876  0.00000000       0.000
   0.00000000  0.62605042  0.00000000       0.000
   0.00000000  0.63025212  0.00000000       0.000
   0.00000000  0.63445378  0.00000000       0.000
   0.00000000  0.63865548  0.00000000       0.000
   0.00000000  0.64285714  0.00000000       0.000
   0.00000000  0.64705884  0.00000000       0.000
   0.00000000  0.65126050  0.00000000       0.000
   0.00000000  0.65546220  0.00000000       0.000
   0.00000000  0.65966386  0.00000000       0.000
   0.00000000  0.66386556  0.00000000       0.000
   0.00000000  0.66806722  0.00000000       0.000
   0.00000000  0.67226886  0.00000000       0.000
   0.00000000  0.67647058  0.00000000       0.000
   0.00000000  0.68067222  0.00000000       0.000
   0.00000000  0.68487394  0.00000000       0.000
   0.00000000  0.68907558  0.00000000       0.000
   0.00000000  0.69327730  0.00000000       0.000
   0.00000000  0.69747896  0.00000000       0.000
   0.00000000  0.70168066  0.00000000       0.000
   0.00000000  0.70588238  0.00000000       0.000
   0.00000000  0.71008402  0.00000000       0.000
   0.00000000  0.71428574  0.00000000       0.000
   0.00000000  0.71848738  0.00000000       0.000
   0.00000000  0.72268910  0.00000000       0.000
   0.00000000  0.72689080  0.00000000       0.000
   0.00000000  0.73109240  0.00000000       0.000
   0.00000000  0.73529410  0.00000000       0.000
   0.00000000  0.73949582  0.00000000       0.000
   0.00000000  0.74369752  0.00000000       0.000
   0.00000000  0.74789912  0.00000000       0.000
   0.00000000  0.75210082  0.00000000       0.000
   0.00000000  0.75630254  0.00000000       0.000
   0.00000000  0.76050424  0.00000000       0.000
   0.00000000  0.76470584  0.00000000       0.000
   0.00000000  0.76890754  0.00000000       0.000
   0.00000000  0.77310926  0.00000000       0.000
   0.00000000  0.77731090  0.00000000       0.000
   0.00000000  0.78151256  0.00000000       0.000
   0.00000000  0.78571426  0.00000000       0.000
   0.00000000  0.78991598  0.00000000       0.000
   0.00000000  0.79411762  0.00000000       0.000
   0.00000000  0.79831934  0.00000000       0.000
   0.00000000  0.80252104  0.00000000       0.000
   0.00000000  0.80672270  0.00000000       0.000
   0.00000000  0.81092436  0.00000000       0.000
   0.00000000  0.81512606  0.00000000       0.000
   0.00000000  0.81932778  0.00000000       0.000
   0.00000000  0.82352936  0.00000000       0.000
   0.00000000  0.82773108  0.00000000       0.000
   0.00000000  0.83193278  0.00000000       0.000
   0.00000000  0.83613450  0.00000000       0.000
   0.00000000  0.84033608  0.00000000       0.000
   0.00000000  0.84453780  0.00000000       0.000
   0.00000000  0.84873950  0.00000000       0.000
   0.00000000  0.85294116  0.00000000       0.000
   0.00000000  0.85714280  0.00000000       0.000
   0.00000000  0.86134452  0.00000000       0.000
   0.00000000  0.86554622  0.00000000       0.000
   0.00000000  0.86974788  0.00000000       0.000
   0.00000000  0.87394958  0.00000000       0.000
   0.00000000  0.87815124  0.00000000       0.000
   0.00000000  0.88235294  0.00000000       0.000
   0.00000000  0.88655460  0.00000000       0.000
   0.00000000  0.89075630  0.00000000       0.000
   0.00000000  0.89495802  0.00000000       0.000
   0.00000000  0.89915962  0.00000000       0.000
   0.00000000  0.90336132  0.00000000       0.000
   0.00000000  0.90756304  0.00000000       0.000
   0.00000000  0.91176474  0.00000000       0.000
   0.00000000  0.91596634  0.00000000       0.000
   0.00000000  0.92016804  0.00000000       0.000
   0.00000000  0.92436976  0.00000000       0.000
   0.00000000  0.92857146  0.00000000       0.000
   0.00000000  0.93277306  0.00000000       0.000
   0.00000000  0.93697476  0.00000000       0.000
   0.00000000  0.94117648  0.00000000       0.000
   0.00000000  0.94537812  0.00000000       0.000
   0.00000000  0.94957984  0.00000000       0.000
   0.00000000  0.95378148  0.00000000       0.000
   0.00000000  0.95798320  0.00000000       0.000
   0.00000000  0.96218484  0.00000000       0.000
   0.00000000  0.96638656  0.00000000       0.000
   0.00000000  0.97058826  0.00000000       0.000
   0.00000000  0.97478992  0.00000000       0.000
   0.00000000  0.97899156  0.00000000       0.000
   0.00000000  0.98319328  0.00000000       0.000
   0.00000000  0.98739498  0.00000000       0.000
   0.00000000  0.99159658  0.00000000       0.000
   0.00000000  0.99579828  0.00000000       0.000
   0.00000000  1.00000000  0.00000000       0.000
   0.00000002  0.99840764 -0.00477704       0.000
  -0.00000004  0.99681530 -0.00955418       0.000
  -0.00000001  0.99522293 -0.01433121       0.000
   0.00000002  0.99363056 -0.01910826       0.000
  -0.00000004  0.99203824 -0.02388538       0.000
  -0.00000001  0.99044587 -0.02866243       0.000
   0.00000002  0.98885350 -0.03343948       0.000
   0.00000005  0.98726113 -0.03821651       0.000
  -0.00000002  0.98566880 -0.04299364       0.000
   0.00000001  0.98407643 -0.04777069       0.000
   0.00000003  0.98248407 -0.05254773       0.000
  -0.00000003  0.98089173 -0.05732487       0.000
  -0.00000000  0.97929936 -0.06210190       0.000
   0.00000003  0.97770699 -0.06687895       0.000
  -0.00000003  0.97611467 -0.07165607       0.000
   0.00000000  0.97452230 -0.07643312       0.000
   0.00000002  0.97292994 -0.08121016       0.000
  -0.00000003  0.97133759 -0.08598729       0.000
  -0.00000001  0.96974523 -0.09076433       0.000
   0.00000002  0.96815286 -0.09554138       0.000
  -0.00000005  0.96656053 -0.10031851       0.000
  -0.00000002  0.96496816 -0.10509556       0.000
   0.00000001  0.96337579 -0.10987259       0.000
   0.00000004  0.96178342 -0.11464964       0.000
  -0.00000002  0.96019110 -0.11942676       0.000
  -0.00000000  0.95859874 -0.12420380       0.000
   0.00000003  0.95700637 -0.12898085       0.000
  -0.00000002  0.95541402 -0.13375798       0.000
   0.00000000  0.95382166 -0.13853502       0.000
   0.00000003  0.95222929 -0.14331207       0.000
  -0.00000004  0.95063696 -0.14808920       0.000
  -0.00000001  0.94904459 -0.15286623       0.000
   0.00000002  0.94745222 -0.15764328       0.000
  -0.00000005  0.94585989 -0.16242041       0.000
   0.00000000  0.94426752 -0.16719746       0.000
   0.00000001  0.94267517 -0.17197449       0.000
  -0.00000004  0.94108282 -0.17675162       0.000
  -0.00000001  0.93949045 -0.18152867       0.000
   0.00000001  0.93789809 -0.18630571       0.000
   0.00000004  0.93630572 -0.19108276       0.000
  -0.00000003  0.93471339 -0.19585989       0.000
   0.00000000  0.93312102 -0.20063692       0.000
   0.00000003  0.93152865 -0.20541397       0.000
  -0.00000003  0.92993631 -0.21019111       0.000
   0.00000000  0.92834396 -0.21496814       0.000
   0.00000003  0.92675159 -0.21974519       0.000
  -0.00000003  0.92515925 -0.22452231       0.000
   0.00000000  0.92356688 -0.22929936       0.000
   0.00000002  0.92197452 -0.23407640       0.000
  -0.00000005  0.92038219 -0.23885353       0.000
  -0.00000002  0.91878982 -0.24363058       0.000
   0.00000001  0.91719745 -0.24840761       0.000
  -0.00000005  0.91560511 -0.25318475       0.000
  -0.00000001  0.91401275 -0.25796179       0.000
   0.00000000  0.91242040 -0.26273882       0.000
   0.00000004  0.91082802 -0.26751588       0.000
  -0.00000002  0.90923568 -0.27229300       0.000
   0.00000000  0.90764332 -0.27707004       0.000
  -0.00000008  0.90605100 -0.28184716       0.000
  -0.00000003  0.90445861 -0.28662423       0.000
  -0.00000001  0.90286625 -0.29140127       0.000
   0.00000002  0.90127388 -0.29617830       0.000
  -0.00000003  0.89968153 -0.30095545       0.000
  -0.00000001  0.89808919 -0.30573247       0.000
   0.00000002  0.89649682 -0.31050952       0.000
   0.00000004  0.89490446 -0.31528656       0.000
  -0.00000001  0.89331211 -0.32006369       0.000
   0.00000000  0.89171976 -0.32484072       0.000
   0.00000004  0.89012738 -0.32961778       0.000
  -0.00000002  0.88853504 -0.33439492       0.000
  -0.00000001  0.88694269 -0.33917195       0.000
   0.00000003  0.88535031 -0.34394899       0.000
  -0.00000003  0.88375797 -0.34872613       0.000
   0.00000000  0.88216562 -0.35350316       0.000
   0.00000002  0.88057326 -0.35828020       0.000
  -0.00000002  0.87898090 -0.36305734       0.000
  -0.00000001  0.87738855 -0.36783437       0.000
   0.00000002  0.87579618 -0.37261142       0.000
  -0.00000005  0.87420385 -0.37738855       0.000
  -0.00000002  0.87261148 -0.38216560       0.000
   0.00000001  0.87101911 -0.38694265       0.000
  -0.00000005  0.86942677 -0.39171977       0.000
  -0.00000002  0.86783440 -0.39649682       0.000
  -0.00000000  0.86624206 -0.40127384       0.000
  -0.00000004  0.86464970 -0.40605100       0.000
  -0.00000002  0.86305734 -0.41082802       0.000
   0.00000000  0.86146498 -0.41560506       0.000
  -0.00000006  0.85987264 -0.42038220       0.000
  -0.00000003  0.85828027 -0.42515925       0.000
  -0.00000001  0.85668791 -0.42993629       0.000
  -0.00000007  0.85509557 -0.43471341       0.000
   0.00000006  0.85350316 -0.43949038       0.000
  -0.00000002  0.85191084 -0.44426750       0.000
   0.00000002  0.85031848 -0.44904454       0.000
  -0.00000005  0.84872615 -0.45382167       0.000
  -0.00000001  0.84713377 -0.45859871       0.000
  -0.00000000  0.84554142 -0.46337574       0.000
  -0.00000004  0.84394906 -0.46815290       0.000
  -0.00000003  0.84235671 -0.47292993       0.000
  -0.00000001  0.84076435 -0.47770697       0.000
   0.00000005  0.83917195 -0.48248403       0.000
  -0.00000003  0.83757963 -0.48726115       0.000
  -0.00000000  0.83598726 -0.49203820       0.000
   0.00000002  0.83439492 -0.49681522       0.000
  -0.00000003  0.83280257 -0.50159237       0.000
   0.00000001  0.83121019 -0.50636941       0.000
   0.00000000  0.82961786 -0.51114642       0.000
  -0.00000003  0.82802549 -0.51592359       0.000
  -0.00000003  0.82643315 -0.52070061       0.000
  -0.00000001  0.82484079 -0.52547765       0.000
  -0.00000003  0.82324841 -0.53025481       0.000
   0.00000000  0.82165604 -0.53503186       0.000
   0.00000000  0.82006372 -0.53980886       0.000
  -0.00000006  0.81847138 -0.54458600       0.000
  -0.00000003  0.81687901 -0.54936305       0.000
   0.00000001  0.81528663 -0.55414009       0.000
  -0.00000006  0.81369430 -0.55891722       0.000
  -0.00000006  0.81210196 -0.56369424       0.000
   0.00000000  0.81050956 -0.56847132       0.000
  -0.00000007  0.80891723 -0.57324845       0.000
  -0.00000006  0.80732488 -0.57802546       0.000
  -0.00000000  0.80573248 -0.58280254       0.000
   0.00000003  0.80414013 -0.58757957       0.000
  -0.00000006  0.80254782 -0.59235668       0.000
  -0.00000003  0.80095545 -0.59713373       0.000
   0.00000003  0.79936305 -0.60191079       0.000
   0.00000003  0.79777071 -0.60668781       0.000
  -0.00000003  0.79617837 -0.61146495       0.000
   0.00000003  0.79458597 -0.61624203       0.000
   0.00000002  0.79299364 -0.62101904       0.000
  -0.00000003  0.79140129 -0.62579617       0.000
   0.00000000  0.78980892 -0.63057322       0.000
   0.00000003  0.78821657 -0.63535025       0.000
  -0.00000003  0.78662423 -0.64012739       0.000
   0.00000001  0.78503185 -0.64490443       0.000
   0.00000000  0.78343952 -0.64968144       0.000
  -0.00000003  0.78184715 -0.65445861       0.000
   0.00000000  0.78025478 -0.65923566       0.000
   0.00000000  0.77866244 -0.66401268       0.000
  -0.00000003  0.77707007 -0.66878983       0.000
   0.00000000  0.77547770 -0.67356688       0.000
   0.00000000  0.77388536 -0.67834390       0.000
  -0.00000006  0.77229304 -0.68312102       0.000
  -0.00000003  0.77070067 -0.68789807       0.000
   0.00000001  0.76910829 -0.69267511       0.000
  -0.00000006  0.76751596 -0.69745224       0.000
  -0.00000006  0.76592362 -0.70222926       0.000
  -0.00000000  0.76433122 -0.70700634       0.000
   0.00000002  0.76273886 -0.71178338       0.000
  -0.00000006  0.76114654 -0.71656048       0.000
   0.00000000  0.75955414 -0.72133756       0.000
   0.00000003  0.75796177 -0.72611461       0.000
  -0.00000006  0.75636948 -0.73089170       0.000
  -0.00000003  0.75477711 -0.73566875       0.000
  -0.00000005  0.75318473 -0.74044591       0.000
   0.00000003  0.75159237 -0.74522283       0.000
  -0.00000003  0.75000003 -0.74999997       0.000
   0.00000000  0.74757284 -0.74757284       0.000
   0.00000000  0.74514562 -0.74514562       0.000
   0.00000000  0.74271846 -0.74271846       0.000
   0.00000000  0.74029124 -0.74029124       0.000
   0.00000000  0.73786408 -0.73786408       0.000
   0.00000000  0.73543692 -0.73543692       0.000
   0.00000000  0.73300970 -0.73300970       0.000
   0.00000000  0.73058254 -0.73058254       0.000
   0.00000001  0.72815531 -0.72815531       0.000
   0.00000001  0.72572815 -0.72572815       0.000
   0.00000001  0.72330099 -0.72330099       0.000
   0.00000001  0.72087377 -0.72087377       0.000
   0.00000001  0.71844661 -0.71844661       0.000
   0.00000001  0.71601939 -0.71601939       0.000
   0.00000001  0.71359223 -0.71359223       0.000
   0.00000001  0.71116507 -0.71116507       0.000
   0.00000001  0.70873785 -0.70873785       0.000
  -0.00000001  0.70631069 -0.70631069       0.000
  -0.00000001  0.70388347 -0.70388347       0.000
  -0.00000001  0.70145631 -0.70145631       0.000
  -0.00000001  0.69902915 -0.69902915       0.000
  -0.00000001  0.69660193 -0.69660193       0.000
  -0.00000001  0.69417477 -0.69417477       0.000
  -0.00000001  0.69174755 -0.69174755       0.000
  -0.00000001  0.68932039 -0.68932039       0.000
   0.00000000  0.68689322 -0.68689322       0.000
   0.00000000  0.68446600 -0.68446600       0.000
   0.00000000  0.68203884 -0.68203884       0.000
   0.00000000  0.67961168 -0.67961168       0.000
   0.00000000  0.67718446 -0.67718446       0.000
   0.00000000  0.67475730 -0.67475730       0.000
   0.00000000  0.67233008 -0.67233008       0.000
   0.00000000  0.66990292 -0.66990292       0.000
   0.00000000  0.66747570 -0.66747570       0.000
   0.00000000  0.66504854 -0.66504854       0.000
   0.00000000  0.66262138 -0.66262138       0.000
   0.00000000  0.66019416 -0.66019416       0.000
   0.00000000  0.65776700 -0.65776700       0.000
   0.00000000  0.65533984 -0.65533984       0.000
   0.00000000  0.65291262 -0.65291262       0.000
   0.00000000  0.65048546 -0.65048546       0.000
   0.00000000  0.64805824 -0.64805824       0.000
   0.00000001  0.64563107 -0.64563107       0.000
   0.00000001  0.64320385 -0.64320385       0.000
   0.00000001  0.64077669 -0.64077669       0.000
   0.00000001  0.63834953 -0.63834953       0.000
   0.00000001  0.63592231 -0.63592231       0.000
   0.00000001  0.63349515 -0.63349515       0.000
   0.00000001  0.63106799 -0.63106799       0.000
   0.00000001  0.62864077 -0.62864077       0.000
   0.00000001  0.62621361 -0.62621361       0.000
  -0.00000001  0.62378639 -0.62378639       0.000
  -0.00000001  0.62135923 -0.62135923       0.000
  -0.00000001  0.61893201 -0.61893201       0.000
  -0.00000001  0.61650485 -0.61650485       0.000
  -0.00000001  0.61407769 -0.61407769       0.000
  -0.00000001  0.61165047 -0.61165047       0.000
  -0.00000001  0.60922331 -0.60922331       0.000
  -0.00000001  0.60679615 -0.60679615       0.000
  -0.00000001  0.60436893 -0.60436893       0.000
   0.00000000  0.60194176 -0.60194176       0.000
   0.00000000  0.59951454 -0.59951454       0.000
   0.00000000  0.59708738 -0.59708738       0.000
   0.00000000  0.59466016 -0.59466016       0.000
   0.00000000  0.59223300 -0.59223300       0.000
   0.00000000  0.58980584 -0.58980584       0.000
   0.00000000  0.58737862 -0.58737862       0.000
   0.00000000  0.58495146 -0.58495146       0.000
   0.00000000  0.58252430 -0.58252430       0.000
   0.00000000  0.58009708 -0.58009708       0.000
   0.00000000  0.57766992 -0.57766992       0.000
   0.00000000  0.57524270 -0.57524270       0.000
   0.00000000  0.57281554 -0.57281554       0.000
   0.00000000  0.57038832 -0.57038832       0.000
   0.00000000  0.56796116 -0.56796116       0.000
   0.00000000  0.56553400 -0.56553400       0.000
   0.00000000  0.56310678 -0.56310678       0.000
   0.00000001  0.56067961 -0.56067961       0.000
   0.00000001  0.55825245 -0.55825245       0.000
   0.00000001  0.55582523 -0.55582523       0.000
   0.00000001  0.55339807 -0.55339807       0.000
   0.00000001  0.55097091 -0.55097091       0.000
   0.00000001  0.54854369 -0.54854369       0.000
   0.00000001  0.54611653 -0.54611653       0.000
   0.00000001  0.54368931 -0.54368931       0.000
  -0.00000001  0.54126215 -0.54126215       0.000
  -0.00000001  0.53883493 -0.53883493       0.000
  -0.00000001  0.53640777 -0.53640777       0.000
  -0.00000001  0.53398061 -0.53398061       0.000
  -0.00000001  0.53155339 -0.53155339       0.000
  -0.00000001  0.52912623 -0.52912623       0.000
  -0.00000001  0.52669907 -0.52669907       0.000
  -0.00000001  0.52427185 -0.52427185       0.000
  -0.00000001  0.52184469 -0.52184469       0.000
   0.00000000  0.51941746 -0.51941746       0.000
   0.00000000  0.51699030 -0.51699030       0.000
   0.00000000  0.51456308 -0.51456308       0.000
   0.00000000  0.51213592 -0.51213592       0.000
   0.00000000  0.50970876 -0.50970876       0.000
   0.00000000  0.50728154 -0.50728154       0.000
   0.00000000  0.50485438 -0.50485438       0.000
   0.00000000  0.50242722 -0.50242722       0.000
   0.00000000  0.50000000 -0.50000000       0.000
  -0.00000001  0.49757281 -0.49757281       0.000
   0.00000000  0.49514562 -0.49514562       0.000
   0.00000000  0.49271846 -0.49271846       0.000
  -0.00000001  0.49029127 -0.49029127       0.000
   0.00000000  0.48786408 -0.48786408       0.000
  -0.00000001  0.48543689 -0.48543689       0.000
   0.00000000  0.48300970 -0.48300970       0.000
   0.00000000  0.48058254 -0.48058254       0.000
   0.00000000  0.47815534 -0.47815534       0.000
   0.00000001  0.47572815 -0.47572815       0.000
   0.00000001  0.47330099 -0.47330099       0.000
   0.00000000  0.47087380 -0.47087380       0.000
   0.00000001  0.46844661 -0.46844661       0.000
   0.00000000  0.46601942 -0.46601942       0.000
   0.00000001  0.46359223 -0.46359223       0.000
   0.00000001  0.46116507 -0.46116507       0.000
   0.00000000  0.45873788 -0.45873788       0.000
  -0.00000001  0.45631069 -0.45631069       0.000
   0.00000000  0.45388350 -0.45388350       0.000
  -0.00000001  0.45145631 -0.45145631       0.000
   0.00000000  0.44902912 -0.44902912       0.000
   0.00000000  0.44660196 -0.44660196       0.000
  -0.00000001  0.44417477 -0.44417477       0.000
   0.00000000  0.44174758 -0.44174758       0.000
  -0.00000001  0.43932039 -0.43932039       0.000
   0.00000001  0.43689319 -0.43689319       0.000
   0.00000001  0.43446603 -0.43446603       0.000
   0.00000000  0.43203884 -0.43203884       0.000
   0.00000001  0.42961165 -0.42961165       0.000
   0.00000000  0.42718446 -0.42718446       0.000
   0.00000001  0.42475727 -0.42475727       0.000
   0.00000001  0.42233011 -0.42233011       0.000
   0.00000000  0.41990292 -0.41990292       0.000
   0.00000001  0.41747573 -0.41747573       0.000
   0.00000000  0.41504854 -0.41504854       0.000
  -0.00000001  0.41262135 -0.41262135       0.000
  -0.00000001  0.41019419 -0.41019419       0.000
   0.00000000  0.40776700 -0.40776700       0.000
  -0.00000001  0.40533981 -0.40533981       0.000
   0.00000000  0.40291262 -0.40291262       0.000
  -0.00000001  0.40048543 -0.40048543       0.000
   0.00000000  0.39805824 -0.39805824       0.000
   0.00000001  0.39563107 -0.39563107       0.000
   0.00000000  0.39320388 -0.39320388       0.000
   0.00000001  0.39077669 -0.39077669       0.000
   0.00000000  0.38834950 -0.38834950       0.000
   0.00000001  0.38592231 -0.38592231       0.000
   0.00000001  0.38349515 -0.38349515       0.000
   0.00000000  0.38106796 -0.38106796       0.000
   0.00000001  0.37864077 -0.37864077       0.000
   0.00000000  0.37621358 -0.37621358       0.000
  -0.00000001  0.37378639 -0.37378639       0.000
  -0.00000001  0.37135923 -0.37135923       0.000
   0.00000000  0.36893204 -0.36893204       0.000
  -0.00000001  0.36650485 -0.36650485       0.000
   0.00000000  0.36407766 -0.36407766       0.000
  -0.00000001  0.36165047 -0.36165047       0.000
   0.00000000  0.35922334 -0.35922334       0.000
  -0.00000001  0.35679615 -0.35679615       0.000
   0.00000001  0.35436895 -0.35436895       0.000
   0.00000000  0.35194176 -0.35194176       0.000
   0.00000001  0.34951457 -0.34951457       0.000
   0.00000000  0.34708738 -0.34708738       0.000
   0.00000000  0.34466022 -0.34466022       0.000
   0.00000001  0.34223303 -0.34223303       0.000
   0.00000000  0.33980584 -0.33980584       0.000
   0.00000001  0.33737865 -0.33737865       0.000
   0.00000000  0.33495146 -0.33495146       0.000
   0.00000000  0.33252430 -0.33252430       0.000
  -0.00000001  0.33009711 -0.33009711       0.000
   0.00000000  0.32766992 -0.32766992       0.000
  -0.00000001  0.32524273 -0.32524273       0.000
   0.00000000  0.32281554 -0.32281554       0.000
   0.00000000  0.32038838 -0.32038838       0.000
  -0.00000001  0.31796119 -0.31796119       0.000
   0.00000000  0.31553400 -0.31553400       0.000
  -0.00000001  0.31310681 -0.31310681       0.000
   0.00000001  0.31067961 -0.31067961       0.000
   0.00000000  0.30825242 -0.30825242       0.000
   0.00000000  0.30582526 -0.30582526       0.000
   0.00000001  0.30339807 -0.30339807       0.000
   0.00000000  0.30097088 -0.30097088       0.000
   0.00000001  0.29854369 -0.29854369       0.000
   0.00000000  0.29611650 -0.29611650       0.000
   0.00000000  0.29368934 -0.29368934       0.000
  -0.00000001  0.29126215 -0.29126215       0.000
   0.00000000  0.28883496 -0.28883496       0.000
  -0.00000001  0.28640777 -0.28640777       0.000
   0.00000000  0.28398058 -0.28398058       0.000
   0.00000000  0.28155342 -0.28155342       0.000
  -0.00000001  0.27912623 -0.27912623       0.000
   0.00000000  0.27669904 -0.27669904       0.000
  -0.00000001  0.27427185 -0.27427185       0.000
   0.00000000  0.27184466 -0.27184466       0.000
   0.00000000  0.26941746 -0.26941746       0.000
   0.00000000  0.26699030 -0.26699030       0.000
   0.00000001  0.26456311 -0.26456311       0.000
   0.00000000  0.26213592 -0.26213592       0.000
   0.00000001  0.25970873 -0.25970873       0.000
   0.00000000  0.25728154 -0.25728154       0.000
   0.00000000  0.25485438 -0.25485438       0.000
   0.00000001  0.25242719 -0.25242719       0.000
   0.00000000  0.25000000 -0.25000000       0.000
   0.00000000  0.24757284 -0.24757284       0.000
   0.00000000  0.24514562 -0.24514562       0.000
   0.00000000  0.24271846 -0.24271846       0.000
   0.00000000  0.24029124 -0.24029124       0.000
   0.00000000  0.23786408 -0.23786408       0.000
   0.00000000  0.23543692 -0.23543692       0.000
   0.00000000  0.23300970 -0.23300970       0.000
   0.00000000  0.23058254 -0.23058254       0.000
   0.00000001  0.22815531 -0.22815531       0.000
   0.00000001  0.22572815 -0.22572815       0.000
   0.00000001  0.22330099 -0.22330099       0.000
   0.00000001  0.22087377 -0.22087377       0.000
   0.00000001  0.21844661 -0.21844661       0.000
   0.00000001  0.21601939 -0.21601939       0.000
   0.00000001  0.21359223 -0.21359223       0.000
   0.00000001  0.21116507 -0.21116507       0.000
   0.00000001  0.20873785 -0.20873785       0.000
  -0.00000001  0.20631069 -0.20631069       0.000
  -0.00000001  0.20388353 -0.20388353       0.000
  -0.00000001  0.20145631 -0.20145631       0.000
  -0.00000001  0.19902915 -0.19902915       0.000
  -0.00000001  0.19660199 -0.19660199       0.000
  -0.00000001  0.19417477 -0.19417477       0.000
  -0.00000001  0.19174761 -0.19174761       0.000
  -0.00000001  0.18932039 -0.18932039       0.000
   0.00000000  0.18689322 -0.18689322       0.000
   0.00000000  0.18446606 -0.18446606       0.000
   0.00000000  0.18203884 -0.18203884       0.000
   0.00000000  0.17961168 -0.17961168       0.000
   0.00000000  0.17718446 -0.17718446       0.000
   0.00000000  0.17475730 -0.17475730       0.000
   0.00000000  0.17233014 -0.17233014       0.000
   0.00000000  0.16990292 -0.16990292       0.000
   0.00000000  0.16747576 -0.16747576       0.000
   0.00000000  0.16504854 -0.16504854       0.000
   0.00000000  0.16262138 -0.16262138       0.000
   0.00000000  0.16019422 -0.16019422       0.000
   0.00000000  0.15776700 -0.15776700       0.000
   0.00000000  0.15533984 -0.15533984       0.000
   0.00000000  0.15291262 -0.15291262       0.000
   0.00000000  0.15048546 -0.15048546       0.000
   0.00000000  0.14805824 -0.14805824       0.000
   0.00000001  0.14563107 -0.14563107       0.000
   0.00000001  0.14320391 -0.14320391       0.000
   0.00000001  0.14077669 -0.14077669       0.000
   0.00000001  0.13834953 -0.13834953       0.000
   0.00000001  0.13592231 -0.13592231       0.000
   0.00000001  0.13349515 -0.13349515       0.000
   0.00000001  0.13106799 -0.13106799       0.000
   0.00000001  0.12864077 -0.12864077       0.000
   0.00000001  0.12621361 -0.12621361       0.000
  -0.00000001  0.12378639 -0.12378639       0.000
  -0.00000001  0.12135923 -0.12135923       0.000
  -0.00000001  0.11893207 -0.11893207       0.000
  -0.00000001  0.11650485 -0.11650485       0.000
  -0.00000001  0.11407769 -0.11407769       0.000
  -0.00000001  0.11165047 -0.11165047       0.000
  -0.00000001  0.10922331 -0.10922331       0.000
  -0.00000001  0.10679615 -0.10679615       0.000
  -0.00000001  0.10436893 -0.10436893       0.000
   0.00000000  0.10194176 -0.10194176       0.000
   0.00000000  0.09951454 -0.09951454       0.000
   0.00000000  0.09708738 -0.09708738       0.000
   0.00000000  0.09466022 -0.09466022       0.000
   0.00000000  0.09223300 -0.09223300       0.000
   0.00000000  0.08980584 -0.08980584       0.000
   0.00000000  0.08737862 -0.08737862       0.000
   0.00000000  0.08495146 -0.08495146       0.000
   0.00000000  0.08252430 -0.08252430       0.000
   0.00000000  0.08009708 -0.08009708       0.000
   0.00000000  0.07766992 -0.07766992       0.000
   0.00000000  0.07524270 -0.07524270       0.000
   0.00000000  0.07281554 -0.07281554       0.000
   0.00000000  0.07038838 -0.07038838       0.000
   0.00000000  0.06796116 -0.06796116       0.000
   0.00000000  0.06553400 -0.06553400       0.000
   0.00000000  0.06310678 -0.06310678       0.000
   0.00000001  0.06067961 -0.06067961       0.000
   0.00000001  0.05825239 -0.05825239       0.000
   0.00000001  0.05582523 -0.05582523       0.000
   0.00000001  0.05339807 -0.05339807       0.000
   0.00000001  0.05097085 -0.05097085       0.000
   0.00000001  0.04854369 -0.04854369       0.000
   0.00000001  0.04611647 -0.04611647       0.000
   0.00000001  0.04368931 -0.04368931       0.000
  -0.00000001  0.04126215 -0.04126215       0.000
  -0.00000001  0.03883493 -0.03883493       0.000
  -0.00000001  0.03640777 -0.03640777       0.000
  -0.00000001  0.03398055 -0.03398055       0.000
  -0.00000001  0.03155339 -0.03155339       0.000
  -0.00000001  0.02912623 -0.02912623       0.000
  -0.00000001  0.02669901 -0.02669901       0.000
  -0.00000001  0.02427185 -0.02427185       0.000
  -0.00000001  0.02184463 -0.02184463       0.000
   0.00000000  0.01941746 -0.01941746       0.000
   0.00000000  0.01699030 -0.01699030       0.000
   0.00000000  0.01456308 -0.01456308       0.000
   0.00000000  0.01213592 -0.01213592       0.000
   0.00000000  0.00970870 -0.00970870       0.000
   0.00000000  0.00728154 -0.00728154       0.000
   0.00000000  0.00485438 -0.00485438       0.000
   0.00000000  0.00242716 -0.00242716       0.000
   0.00000000  0.00000000  0.00000000       0.000
   0.00171821  0.00171821 -0.00171821       0.000
   0.00343643  0.00343643 -0.00343643       0.000
   0.00515464  0.00515464 -0.00515464       0.000
   0.00687285  0.00687285 -0.00687285       0.000
   0.00859107  0.00859107 -0.00859107       0.000
   0.01030928  0.01030928 -0.01030928       0.000
   0.01202749  0.01202749 -0.01202749       0.000
   0.01374570  0.01374570 -0.01374570       0.000
   0.01546392  0.01546392 -0.01546392       0.000
   0.01718213  0.01718213 -0.01718213       0.000
   0.01890034  0.01890034 -0.01890034       0.000
   0.02061856  0.02061856 -0.02061856       0.000
   0.02233677  0.02233677 -0.02233677       0.000
   0.02405498  0.02405498 -0.02405498       0.000
   0.02577319  0.02577319 -0.02577319       0.000
   0.02749141  0.02749141 -0.02749141       0.000
   0.02920962  0.02920962 -0.02920962       0.000
   0.03092784  0.03092784 -0.03092784       0.000
   0.03264605  0.03264605 -0.03264605       0.000
   0.03436426  0.03436426 -0.03436426       0.000
   0.03608247  0.03608247 -0.03608247       0.000
   0.03780068  0.03780068 -0.03780068       0.000
   0.03951890  0.03951890 -0.03951890       0.000
   0.04123711  0.04123711 -0.04123711       0.000
   0.04295532  0.04295532 -0.04295532       0.000
   0.04467354  0.04467354 -0.04467354       0.000
   0.04639175  0.04639175 -0.04639175       0.000
   0.04810996  0.04810996 -0.04810996       0.000
   0.04982818  0.04982818 -0.04982818       0.000
   0.05154639  0.05154639 -0.05154639       0.000
   0.05326461  0.05326461 -0.05326461       0.000
   0.05498282  0.05498282 -0.05498282       0.000
   0.05670103  0.05670103 -0.05670103       0.000
   0.05841925  0.05841925 -0.05841925       0.000
   0.06013746  0.06013746 -0.06013746       0.000
   0.06185567  0.06185567 -0.06185567       0.000
   0.06357388  0.06357388 -0.06357388       0.000
   0.06529210  0.06529210 -0.06529210       0.000
   0.06701031  0.06701031 -0.06701031       0.000
   0.06872852  0.06872852 -0.06872852       0.000
   0.07044674  0.07044674 -0.07044674       0.000
   0.07216495  0.07216495 -0.07216495       0.000
   0.07388316  0.07388316 -0.07388316       0.000
   0.07560137  0.07560137 -0.07560137       0.000
   0.07731958  0.07731958 -0.07731958       0.000
   0.07903779  0.07903779 -0.07903779       0.000
   0.08075602  0.08075602 -0.08075602       0.000
   0.08247422  0.08247422 -0.08247422       0.000
   0.08419244  0.08419244 -0.08419244       0.000
   0.08591065  0.08591065 -0.08591065       0.000
   0.08762886  0.08762886 -0.08762886       0.000
   0.08934707  0.08934707 -0.08934707       0.000
   0.09106529  0.09106529 -0.09106529       0.000
   0.09278350  0.09278350 -0.09278350       0.000
   0.09450172  0.09450172 -0.09450172       0.000
   0.09621993  0.09621993 -0.09621993       0.000
   0.09793814  0.09793814 -0.09793814       0.000
   0.09965635  0.09965635 -0.09965635       0.000
   0.10137457  0.10137457 -0.10137457       0.000
   0.10309277  0.10309277 -0.10309277       0.000
   0.10481100  0.10481100 -0.10481100       0.000
   0.10652921  0.10652921 -0.10652921       0.000
   0.10824742  0.10824742 -0.10824742       0.000
   0.10996564  0.10996564 -0.10996564       0.000
   0.11168385  0.11168385 -0.11168385       0.000
   0.11340205  0.11340205 -0.11340205       0.000
   0.11512027  0.11512027 -0.11512027       0.000
   0.11683849  0.11683849 -0.11683849       0.000
   0.11855670  0.11855670 -0.11855670       0.000
   0.12027492  0.12027492 -0.12027492       0.000
   0.12199312  0.12199312 -0.12199312       0.000
   0.12371134  0.12371134 -0.12371134       0.000
   0.12542956  0.12542956 -0.12542956       0.000
   0.12714776  0.12714776 -0.12714776       0.000
   0.12886599  0.12886599 -0.12886599       0.000
   0.13058420  0.13058420 -0.13058420       0.000
   0.13230240  0.13230240 -0.13230240       0.000
   0.13402061  0.13402061 -0.13402061       0.000
   0.13573883  0.13573883 -0.13573883       0.000
   0.13745704  0.13745704 -0.13745704       0.000
   0.13917525  0.13917525 -0.13917525       0.000
   0.14089347  0.14089347 -0.14089347       0.000
   0.14261168  0.14261168 -0.14261168       0.000
   0.14432989  0.14432989 -0.14432989       0.000
   0.14604811  0.14604811 -0.14604811       0.000
   0.14776632  0.14776632 -0.14776632       0.000
   0.14948453  0.14948453 -0.14948453       0.000
   0.15120274  0.15120274 -0.15120274       0.000
   0.15292096  0.15292096 -0.15292096       0.000
   0.15463917  0.15463917 -0.15463917       0.000
   0.15635738  0.15635738 -0.15635738       0.000
   0.15807559  0.15807559 -0.15807559       0.000
   0.15979382  0.15979382 -0.15979382       0.000
   0.16151203  0.16151203 -0.16151203       0.000
   0.16323024  0.16323024 -0.16323024       0.000
   0.16494845  0.16494845 -0.16494845       0.000
   0.16666667  0.16666667 -0.16666667       0.000
   0.16838488  0.16838488 -0.16838488       0.000
   0.17010309  0.17010309 -0.17010309       0.000
   0.17182130  0.17182130 -0.17182130       0.000
   0.17353952  0.17353952 -0.17353952       0.000
   0.17525773  0.17525773 -0.17525773       0.000
   0.17697594  0.17697594 -0.17697594       0.000
   0.17869414  0.17869414 -0.17869414       0.000
   0.18041237  0.18041237 -0.18041237       0.000
   0.18213058  0.18213058 -0.18213058       0.000
   0.18384880  0.18384880 -0.18384880       0.000
   0.18556701  0.18556701 -0.18556701       0.000
   0.18728523  0.18728523 -0.18728523       0.000
   0.18900344  0.18900344 -0.18900344       0.000
   0.19072165  0.19072165 -0.19072165       0.000
   0.19243985  0.19243985 -0.19243985       0.000
   0.19415808  0.19415808 -0.19415808       0.000
   0.19587629  0.19587629 -0.19587629       0.000
   0.19759449  0.19759449 -0.19759449       0.000
   0.19931270  0.19931270 -0.19931270       0.000
   0.20103092  0.20103092 -0.20103092       0.000
   0.20274913  0.20274913 -0.20274913       0.000
   0.20446734  0.20446734 -0.20446734       0.000
   0.20618555  0.20618555 -0.20618555       0.000
   0.20790379  0.20790379 -0.20790379       0.000
   0.20962200  0.20962200 -0.20962200       0.000
   0.21134020  0.21134020 -0.21134020       0.000
   0.21305843  0.21305843 -0.21305843       0.000
   0.21477664  0.21477664 -0.21477664       0.000
   0.21649484  0.21649484 -0.21649484       0.000
   0.21821305  0.21821305 -0.21821305       0.000
   0.21993127  0.21993127 -0.21993127       0.000
   0.22164948  0.22164948 -0.22164948       0.000
   0.22336769  0.22336769 -0.22336769       0.000
   0.22508590  0.22508590 -0.22508590       0.000
   0.22680411  0.22680411 -0.22680411       0.000
   0.22852233  0.22852233 -0.22852233       0.000
   0.23024054  0.23024054 -0.23024054       0.000
   0.23195875  0.23195875 -0.23195875       0.000
   0.23367698  0.23367698 -0.23367698       0.000
   0.23539519  0.23539519 -0.23539519       0.000
   0.23711340  0.23711340 -0.23711340       0.000
   0.23883161  0.23883161 -0.23883161       0.000
   0.24054983  0.24054983 -0.24054983       0.000
   0.24226804  0.24226804 -0.24226804       0.000
   0.24398625  0.24398625 -0.24398625       0.000
   0.24570446  0.24570446 -0.24570446       0.000
   0.24742268  0.24742268 -0.24742268       0.000
   0.24914089  0.24914089 -0.24914089       0.000
   0.25085911  0.25085911 -0.25085911       0.000
   0.25257730  0.25257730 -0.25257730       0.000
   0.25429553  0.25429553 -0.25429553       0.000
   0.25601372  0.25601372 -0.25601372       0.000
   0.25773197  0.25773197 -0.25773197       0.000
   0.25945017  0.25945017 -0.25945017       0.000
   0.26116839  0.26116839 -0.26116839       0.000
   0.26288658  0.26288658 -0.26288658       0.000
   0.26460481  0.26460481 -0.26460481       0.000
   0.26632303  0.26632303 -0.26632303       0.000
   0.26804122  0.26804122 -0.26804122       0.000
   0.26975945  0.26975945 -0.26975945       0.000
   0.27147767  0.27147767 -0.27147767       0.000
   0.27319586  0.27319586 -0.27319586       0.000
   0.27491409  0.27491409 -0.27491409       0.000
   0.27663228  0.27663228 -0.27663228       0.000
   0.27835050  0.27835050 -0.27835050       0.000
   0.28006873  0.28006873 -0.28006873       0.000
   0.28178695  0.28178695 -0.28178695       0.000
   0.28350514  0.28350514 -0.28350514       0.000
   0.28522336  0.28522336 -0.28522336       0.000
   0.28694159  0.28694159 -0.28694159       0.000
   0.28865978  0.28865978 -0.28865978       0.000
   0.29037797  0.29037797 -0.29037797       0.000
   0.29209623  0.29209623 -0.29209623       0.000
   0.29381445  0.29381445 -0.29381445       0.000
   0.29553264  0.29553264 -0.29553264       0.000
   0.29725087  0.29725087 -0.29725087       0.000
   0.29896906  0.29896906 -0.29896906       0.000
   0.30068728  0.30068728 -0.30068728       0.000
   0.30240548  0.30240548 -0.30240548       0.000
   0.30412373  0.30412373 -0.30412373       0.000
   0.30584192  0.30584192 -0.30584192       0.000
   0.30756015  0.30756015 -0.30756015       0.000
   0.30927834  0.30927834 -0.30927834       0.000
   0.31099656  0.31099656 -0.31099656       0.000
   0.31271476  0.31271476 -0.31271476       0.000
   0.31443298  0.31443298 -0.31443298       0.000
   0.31615117  0.31615117 -0.31615117       0.000
   0.31786940  0.31786940 -0.31786940       0.000
   0.31958765  0.31958765 -0.31958765       0.000
   0.32130584  0.32130584 -0.32130584       0.000
   0.32302406  0.32302406 -0.32302406       0.000
   0.32474226  0.32474226 -0.32474226       0.000
   0.32646048  0.32646048 -0.32646048       0.000
   0.32817867  0.32817867 -0.32817867       0.000
   0.32989690  0.32989690 -0.32989690       0.000
   0.33161509  0.33161509 -0.33161509       0.000
   0.33333334  0.33333334 -0.33333334       0.000
   0.33505154  0.33505154 -0.33505154       0.000
   0.33676976  0.33676976 -0.33676976       0.000
   0.33848795  0.33848795 -0.33848795       0.000
   0.34020618  0.34020618 -0.34020618       0.000
   0.34192437  0.34192437 -0.34192437       0.000
   0.34364259  0.34364259 -0.34364259       0.000
   0.34536085  0.34536085 -0.34536085       0.000
   0.34707904  0.34707904 -0.34707904       0.000
   0.34879726  0.34879726 -0.34879726       0.000
   0.35051546  0.35051546 -0.35051546       0.000
   0.35223368  0.35223368 -0.35223368       0.000
   0.35395187  0.35395187 -0.35395187       0.000
   0.35567009  0.35567009 -0.35567009       0.000
   0.35738829  0.35738829 -0.35738829       0.000
   0.35910654  0.35910654 -0.35910654       0.000
   0.36082473  0.36082473 -0.36082473       0.000
   0.36254296  0.36254296 -0.36254296       0.000
   0.36426115  0.36426115 -0.36426115       0.000
   0.36597937  0.36597937 -0.36597937       0.000
   0.36769760  0.36769760 -0.36769760       0.000
   0.36941579  0.36941579 -0.36941579       0.000
   0.37113401  0.37113401 -0.37113401       0.000
   0.37285224  0.37285224 -0.37285224       0.000
   0.37457046  0.37457046 -0.37457046       0.000
   0.37628865  0.37628865 -0.37628865       0.000
   0.37800688  0.37800688 -0.37800688       0.000
   0.37972507  0.37972507 -0.37972507       0.000
   0.38144329  0.38144329 -0.38144329       0.000
   0.38316149  0.38316149 -0.38316149       0.000
   0.38487971  0.38487971 -0.38487971       0.000
   0.38659793  0.38659793 -0.38659793       0.000
   0.38831615  0.38831615 -0.38831615       0.000
   0.39003435  0.39003435 -0.39003435       0.000
   0.39175257  0.39175257 -0.39175257       0.000
   0.39347079  0.39347079 -0.39347079       0.000
   0.39518899  0.39518899 -0.39518899       0.000
   0.39690721  0.39690721 -0.39690721       0.000
   0.39862540  0.39862540 -0.39862540       0.000
   0.40034366  0.40034366 -0.40034366       0.000
   0.40206185  0.40206185 -0.40206185       0.000
   0.40378007  0.40378007 -0.40378007       0.000
   0.40549827  0.40549827 -0.40549827       0.000
   0.40721649  0.40721649 -0.40721649       0.000
   0.40893468  0.40893468 -0.40893468       0.000
   0.41065291  0.41065291 -0.41065291       0.000
   0.41237110  0.41237110 -0.41237110       0.000
   0.41408935  0.41408935 -0.41408935       0.000
   0.41580757  0.41580757 -0.41580757       0.000
   0.41752577  0.41752577 -0.41752577       0.000
   0.41924399  0.41924399 -0.41924399       0.000
   0.42096218  0.42096218 -0.42096218       0.000
   0.42268041  0.42268041 -0.42268041       0.000
   0.42439860  0.42439860 -0.42439860       0.000
   0.42611685  0.42611685 -0.42611685       0.000
   0.42783505  0.42783505 -0.42783505       0.000
   0.42955327  0.42955327 -0.42955327       0.000
   0.43127146  0.43127146 -0.43127146       0.000
   0.43298969  0.43298969 -0.43298969       0.000
   0.43470788  0.43470788 -0.43470788       0.000
   0.43642610  0.43642610 -0.43642610       0.000
   0.43814430  0.43814430 -0.43814430       0.000
   0.43986255  0.43986255 -0.43986255       0.000
   0.44158077  0.44158077 -0.44158077       0.000
   0.44329897  0.44329897 -0.44329897       0.000
   0.44501719  0.44501719 -0.44501719       0.000
   0.44673538  0.44673538 -0.44673538       0.000
   0.44845361  0.44845361 -0.44845361       0.000
   0.45017180  0.45017180 -0.45017180       0.000
   0.45189002  0.45189002 -0.45189002       0.000
   0.45360821  0.45360821 -0.45360821       0.000
   0.45532647  0.45532647 -0.45532647       0.000
   0.45704466  0.45704466 -0.45704466       0.000
   0.45876288  0.45876288 -0.45876288       0.000
   0.46048108  0.46048108 -0.46048108       0.000
   0.46219930  0.46219930 -0.46219930       0.000
   0.46391749  0.46391749 -0.46391749       0.000
   0.46563572  0.46563572 -0.46563572       0.000
   0.46735397  0.46735397 -0.46735397       0.000
   0.46907216  0.46907216 -0.46907216       0.000
   0.47079039  0.47079039 -0.47079039       0.000
   0.47250858  0.47250858 -0.47250858       0.000
   0.47422680  0.47422680 -0.47422680       0.000
   0.47594500  0.47594500 -0.47594500       0.000
   0.47766322  0.47766322 -0.47766322       0.000
   0.47938141  0.47938141 -0.47938141       0.000
   0.48109967  0.48109967 -0.48109967       0.000
   0.48281786  0.48281786 -0.48281786       0.000
   0.48453608  0.48453608 -0.48453608       0.000
   0.48625427  0.48625427 -0.48625427       0.000
   0.48797250  0.48797250 -0.48797250       0.000
   0.48969072  0.48969072 -0.48969072       0.000
   0.49140891  0.49140891 -0.49140891       0.000
   0.49312717  0.49312717 -0.49312717       0.000
   0.49484536  0.49484536 -0.49484536       0.000
   0.49656358  0.49656358 -0.49656358       0.000
   0.49828178  0.49828178 -0.49828178       0.000
   0.50000000  0.50000000 -0.50000000       0.000
 
 k-points in reciprocal lattice and weights: Automatically generated mesh SCF: 16 ste
   0.00000000  0.00000000  0.00000000       0.005
   0.16666667  0.00000000  0.00000000       0.037
   0.33333333  0.00000000  0.00000000       0.037
   0.50000000  0.00000000  0.00000000       0.019
   0.16666667  0.16666667  0.00000000       0.028
   0.33333333  0.16666667  0.00000000       0.111
   0.50000000  0.16666667  0.00000000       0.111
  -0.33333333  0.16666667  0.00000000       0.111
  -0.16666667  0.16666667  0.00000000       0.056
   0.33333333  0.33333333  0.00000000       0.028
   0.50000000  0.33333333  0.00000000       0.111
  -0.33333333  0.33333333  0.00000000       0.056
   0.50000000  0.50000000  0.00000000       0.014
   0.50000000  0.33333333  0.16666667       0.111
  -0.33333333  0.33333333  0.16666667       0.111
  -0.33333333  0.50000000  0.16666667       0.056
   0.00000000  0.00000000  0.00000000       0.000
   0.00210084  0.00000000  0.00210084       0.000
   0.00420168  0.00000000  0.00420168       0.000
   0.00630252  0.00000000  0.00630252       0.000
   0.00840336  0.00000000  0.00840336       0.000
   0.01050420  0.00000000  0.01050420       0.000
   0.01260504  0.00000000  0.01260504       0.000
   0.01470588  0.00000000  0.01470588       0.000
   0.01680672  0.00000000  0.01680672       0.000
   0.01890756  0.00000000  0.01890756       0.000
   0.02100840  0.00000000  0.02100840       0.000
   0.02310924  0.00000000  0.02310924       0.000
   0.02521008  0.00000000  0.02521008       0.000
   0.02731092  0.00000000  0.02731092       0.000
   0.02941176  0.00000000  0.02941176       0.000
   0.03151260  0.00000000  0.03151260       0.000
   0.03361344  0.00000000  0.03361344       0.000
   0.03571429  0.00000000  0.03571429       0.000
   0.03781512  0.00000000  0.03781512       0.000
   0.03991597  0.00000000  0.03991597       0.000
   0.04201680  0.00000000  0.04201680       0.000
   0.04411765  0.00000000  0.04411765       0.000
   0.04621849  0.00000000  0.04621849       0.000
   0.04831933  0.00000000  0.04831933       0.000
   0.05042017  0.00000000  0.05042017       0.000
   0.05252101  0.00000000  0.05252101       0.000
   0.05462185  0.00000000  0.05462185       0.000
   0.05672269  0.00000000  0.05672269       0.000
   0.05882353  0.00000000  0.05882353       0.000
   0.06092437  0.00000000  0.06092437       0.000
   0.06302521  0.00000000  0.06302521       0.000
   0.06512605  0.00000000  0.06512605       0.000
   0.06722689  0.00000000  0.06722689       0.000
   0.06932773  0.00000000  0.06932773       0.000
   0.07142857  0.00000000  0.07142857       0.000
   0.07352941  0.00000000  0.07352941       0.000
   0.07563025  0.00000000  0.07563025       0.000
   0.07773110  0.00000000  0.07773110       0.000
   0.07983194  0.00000000  0.07983194       0.000
   0.08193278  0.00000000  0.08193278       0.000
   0.08403361  0.00000000  0.08403361       0.000
   0.08613445  0.00000000  0.08613445       0.000
   0.08823530  0.00000000  0.08823530       0.000
   0.09033614  0.00000000  0.09033614       0.000
   0.09243698  0.00000000  0.09243698       0.000
   0.09453782  0.00000000  0.09453782       0.000
   0.09663866  0.00000000  0.09663866       0.000
   0.09873950  0.00000000  0.09873950       0.000
   0.10084034  0.00000000  0.10084034       0.000
   0.10294117  0.00000000  0.10294117       0.000
   0.10504201  0.00000000  0.10504201       0.000
   0.10714285  0.00000000  0.10714285       0.000
   0.10924370  0.00000000  0.10924370       0.000
   0.11134454  0.00000000  0.11134454       0.000
   0.11344538  0.00000000  0.11344538       0.000
   0.11554622  0.00000000  0.11554622       0.000
   0.11764706  0.00000000  0.11764706       0.000
   0.11974790  0.00000000  0.11974790       0.000
   0.12184874  0.00000000  0.12184874       0.000
   0.12394957  0.00000000  0.12394957       0.000
   0.12605041  0.00000000  0.12605041       0.000
   0.12815125  0.00000000  0.12815125       0.000
   0.13025209  0.00000000  0.13025209       0.000
   0.13235293  0.00000000  0.13235293       0.000
   0.13445377  0.00000000  0.13445377       0.000
   0.13655463  0.00000000  0.13655463       0.000
   0.13865547  0.00000000  0.13865547       0.000
   0.14075631  0.00000000  0.14075631       0.000
   0.14285715  0.00000000  0.14285715       0.000
   0.14495799  0.00000000  0.14495799       0.000
   0.14705881  0.00000000  0.14705881       0.000
   0.14915965  0.00000000  0.14915965       0.000
   0.15126050  0.00000000  0.15126050       0.000
   0.15336134  0.00000000  0.15336134       0.000
   0.15546219  0.00000000  0.15546219       0.000
   0.15756303  0.00000000  0.15756303       0.000
   0.15966387  0.00000000  0.15966387       0.000
   0.16176471  0.00000000  0.16176471       0.000
   0.16386555  0.00000000  0.16386555       0.000
   0.16596639  0.00000000  0.16596639       0.000
   0.16806722  0.00000000  0.16806722       0.000
   0.17016806  0.00000000  0.17016806       0.000
   0.17226890  0.00000000  0.17226890       0.000
   0.17436974  0.00000000  0.17436974       0.000
   0.17647059  0.00000000  0.17647059       0.000
   0.17857143  0.00000000  0.17857143       0.000
   0.18067227  0.00000000  0.18067227       0.000
   0.18277310  0.00000000  0.18277310       0.000
   0.18487395  0.00000000  0.18487395       0.000
   0.18697478  0.00000000  0.18697478       0.000
   0.18907563  0.00000000  0.18907563       0.000
   0.19117646  0.00000000  0.19117646       0.000
   0.19327731  0.00000000  0.19327731       0.000
   0.19537814  0.00000000  0.19537814       0.000
   0.19747899  0.00000000  0.19747899       0.000
   0.19957983  0.00000000  0.19957983       0.000
   0.20168068  0.00000000  0.20168068       0.000
   0.20378152  0.00000000  0.20378152       0.000
   0.20588234  0.00000000  0.20588234       0.000
   0.20798320  0.00000000  0.20798320       0.000
   0.21008402  0.00000000  0.21008402       0.000
   0.21218488  0.00000000  0.21218488       0.000
   0.21428570  0.00000000  0.21428570       0.000
   0.21638656  0.00000000  0.21638656       0.000
   0.21848740  0.00000000  0.21848740       0.000
   0.22058824  0.00000000  0.22058824       0.000
   0.22268908  0.00000000  0.22268908       0.000
   0.22478990  0.00000000  0.22478990       0.000
   0.22689076  0.00000000  0.22689076       0.000
   0.22899158  0.00000000  0.22899158       0.000
   0.23109244  0.00000000  0.23109244       0.000
   0.23319326  0.00000000  0.23319326       0.000
   0.23529412  0.00000000  0.23529412       0.000
   0.23739496  0.00000000  0.23739496       0.000
   0.23949580  0.00000000  0.23949580       0.000
   0.24159664  0.00000000  0.24159664       0.000
   0.24369748  0.00000000  0.24369748       0.000
   0.24579832  0.00000000  0.24579832       0.000
   0.24789914  0.00000000  0.24789914       0.000
   0.25000000  0.00000000  0.25000000       0.000
   0.25210083  0.00000000  0.25210083       0.000
   0.25420168  0.00000000  0.25420168       0.000
   0.25630251  0.00000000  0.25630251       0.000
   0.25840336  0.00000000  0.25840336       0.000
   0.26050419  0.00000000  0.26050419       0.000
   0.26260504  0.00000000  0.26260504       0.000
   0.26470587  0.00000000  0.26470587       0.000
   0.26680672  0.00000000  0.26680672       0.000
   0.26890755  0.00000000  0.26890755       0.000
   0.27100840  0.00000000  0.27100840       0.000
   0.27310926  0.00000000  0.27310926       0.000
   0.27521008  0.00000000  0.27521008       0.000
   0.27731094  0.00000000  0.27731094       0.000
   0.27941176  0.00000000  0.27941176       0.000
   0.28151262  0.00000000  0.28151262       0.000
[...]
      1      -8.6829      2.00000
      2      -6.0779      2.00000
      3      -6.0779      2.00000
      4      -5.8679      2.00000
      5      -5.8679      2.00000
      6      -5.5425      2.00000
      7      -2.3220      2.00000
      8       1.3692      2.00000
      9       1.3692      2.00000
     10       3.8091      0.00000
     11       7.2457      0.00000
     12       7.2457      0.00000
     13       8.9990      0.00000
     14      10.5369      0.00000
     15      12.2697      0.00000
     16      12.2697      0.00000

 k-point   998 :       0.4759    0.4759    0.4759
  band No.  band energies     occupation 
      1      -8.6825      2.00000
      2      -6.0778      2.00000
      3      -6.0778      2.00000
      4      -5.8679      2.00000
      5      -5.8679      2.00000
      6      -5.5415      2.00000
      7      -2.3250      2.00000
      8       1.3686      2.00000
      9       1.3686      2.00000
     10       3.8087      0.00000
     11       7.2455      0.00000
     12       7.2455      0.00000
     13       9.0002      0.00000
     14      10.5433      0.00000
     15      12.2808      0.00000
     16      12.2808      0.00000

 k-point   999 :       0.4777    0.4777    0.4777
  band No.  band energies     occupation 
      1      -8.6822      2.00000
      2      -6.0778      2.00000
      3      -6.0778      2.00000
      4      -5.8679      2.00000
      5      -5.8679      2.00000
      6      -5.5405      2.00000
      7      -2.3277      2.00000
      8       1.3681      2.00000
      9       1.3681      2.00000
     10       3.8083      0.00000
     11       7.2452      0.00000
     12       7.2452      0.00000
     13       9.0014      0.00000
     14      10.5494      0.00000
     15      12.2913      0.00000
     16      12.2913      0.00000

 k-point  1000 :       0.4794    0.4794    0.4794
  band No.  band energies     occupation 
      1      -8.6819      2.00000
      2      -6.0778      2.00000
      3      -6.0778      2.00000
      4      -5.8679      2.00000
      5      -5.8679      2.00000
      6      -5.5396      2.00000
      7      -2.3303      2.00000
      8       1.3676      2.00000
      9       1.3676      2.00000
     10       3.8080      0.00000
     11       7.2450      0.00000
     12       7.2450      0.00000
     13       9.0024      0.00000
     14      10.5550      0.00000
     15      12.3013      0.00000
     16      12.3013      0.00000

 k-point  1001 :       0.4811    0.4811    0.4811
  band No.  band energies     occupation 
      1      -8.6817      2.00000
      2      -6.0777      2.00000
      3      -6.0777      2.00000
      4      -5.8678      2.00000
      5      -5.8678      2.00000
      6      -5.5387      2.00000
      7      -2.3326      2.00000
      8       1.3672      2.00000
      9       1.3672      2.00000
     10       3.8076      0.00000
     11       7.2448      0.00000
     12       7.2448      0.00000
     13       9.0034      0.00000
     14      10.5602      0.00000
     15      12.3105      0.00000
     16      12.3105      0.00000

 k-point  1002 :       0.4828    0.4828    0.4828
  band No.  band energies     occupation 
      1      -8.6814      2.00000
      2      -6.0777      2.00000
      3      -6.0777      2.00000
      4      -5.8678      2.00000
      5      -5.8678      2.00000
      6      -5.5379      2.00000
      7      -2.3348      2.00000
      8       1.3668      2.00000
      9       1.3668      2.00000
     10       3.8074      0.00000
     11       7.2447      0.00000
     12       7.2447      0.00000
     13       9.0042      0.00000
     14      10.5650      0.00000
     15      12.3191      0.00000
     16      12.3191      0.00000

 k-point  1003 :       0.4845    0.4845    0.4845
  band No.  band energies     occupation 
      1      -8.6812      2.00000
      2      -6.0777      2.00000
      3      -6.0777      2.00000
      4      -5.8678      2.00000
      5      -5.8678      2.00000
      6      -5.5372      2.00000
      7      -2.3367      2.00000
      8       1.3665      2.00000
      9       1.3665      2.00000
     10       3.8071      0.00000
     11       7.2445      0.00000
     12       7.2445      0.00000
     13       9.0050      0.00000
     14      10.5694      0.00000
     15      12.3270      0.00000
     16      12.3270      0.00000

 k-point  1004 :       0.4863    0.4863    0.4863
  band No.  band energies     occupation 
      1      -8.6810      2.00000
      2      -6.0776      2.00000
      3      -6.0776      2.00000
      4      -5.8678      2.00000
      5      -5.8678      2.00000
      6      -5.5366      2.00000
      7      -2.3384      2.00000
      8       1.3661      2.00000
      9       1.3661      2.00000
     10       3.8069      0.00000
     11       7.2444      0.00000
     12       7.2444      0.00000
     13       9.0057      0.00000
     14      10.5734      0.00000
     15      12.3341      0.00000
     16      12.3341      0.00000

 k-point  1005 :       0.4880    0.4880    0.4880
  band No.  band energies     occupation 
      1      -8.6808      2.00000
      2      -6.0776      2.00000
      3      -6.0776      2.00000
      4      -5.8678      2.00000
      5      -5.8678      2.00000
      6      -5.5361      2.00000
      7      -2.3400      2.00000
      8       1.3659      2.00000
      9       1.3659      2.00000
     10       3.8067      0.00000
     11       7.2442      0.00000
     12       7.2442      0.00000
     13       9.0063      0.00000
     14      10.5769      0.00000
     15      12.3405      0.00000
     16      12.3405      0.00000

 k-point  1006 :       0.4897    0.4897    0.4897
  band No.  band energies     occupation 
      1      -8.6807      2.00000
      2      -6.0776      2.00000
      3      -6.0776      2.00000
      4      -5.8678      2.00000
      5      -5.8678      2.00000
      6      -5.5356      2.00000
      7      -2.3413      2.00000
      8       1.3656      2.00000
      9       1.3656      2.00000
     10       3.8065      0.00000
     11       7.2441      0.00000
     12       7.2441      0.00000
     13       9.0068      0.00000
     14      10.5800      0.00000
     15      12.3461      0.00000
     16      12.3461      0.00000

 k-point  1007 :       0.4914    0.4914    0.4914
  band No.  band energies     occupation 
      1      -8.6806      2.00000
      2      -6.0776      2.00000
      3      -6.0776      2.00000
      4      -5.8677      2.00000
      5      -5.8677      2.00000
      6      -5.5352      2.00000
      7      -2.3424      2.00000
      8       1.3654      2.00000
      9       1.3654      2.00000
     10       3.8063      0.00000
     11       7.2440      0.00000
     12       7.2440      0.00000
     13       9.0073      0.00000
     14      10.5826      0.00000
     15      12.3509      0.00000
     16      12.3509      0.00000

 k-point  1008 :       0.4931    0.4931    0.4931
  band No.  band energies     occupation 
      1      -8.6805      2.00000
      2      -6.0776      2.00000
      3      -6.0776      2.00000
      4      -5.8677      2.00000
      5      -5.8677      2.00000
      6      -5.5348      2.00000
      7      -2.3433      2.00000
      8       1.3653      2.00000
      9       1.3653      2.00000
     10       3.8062      0.00000
     11       7.2440      0.00000
     12       7.2440      0.00000
     13       9.0076      0.00000
     14      10.5847      0.00000
     15      12.3548      0.00000
     16      12.3548      0.00000

 k-point  1009 :       0.4948    0.4948    0.4948
  band No.  band energies     occupation 
      1      -8.6804      2.00000
      2      -6.0776      2.00000
      3      -6.0776      2.00000
      4      -5.8677      2.00000
      5      -5.8677      2.00000
      6      -5.5346      2.00000
      7      -2.3441      2.00000
      8       1.3651      2.00000
      9       1.3651      2.00000
     10       3.8061      0.00000
     11       7.2439      0.00000
     12       7.2439      0.00000
     13       9.0079      0.00000
     14      10.5864      0.00000
     15      12.3579      0.00000
     16      12.3579      0.00000

 k-point  1010 :       0.4966    0.4966    0.4966
  band No.  band energies     occupation 
      1      -8.6803      2.00000
      2      -6.0776      2.00000
      3      -6.0776      2.00000
      4      -5.8677      2.00000
      5      -5.8677      2.00000
      6      -5.5344      2.00000
      7      -2.3446      2.00000
      8       1.3650      2.00000
      9       1.3650      2.00000
     10       3.8060      0.00000
     11       7.2439      0.00000
     12       7.2439      0.00000
     13       9.0081      0.00000
     14      10.5875      0.00000
     15      12.3601      0.00000
     16      12.3601      0.00000

 k-point  1011 :       0.4983    0.4983    0.4983
  band No.  band energies     occupation 
      1      -8.6803      2.00000
      2      -6.0776      2.00000
      3      -6.0776      2.00000
      4      -5.8677      2.00000
      5      -5.8677      2.00000
      6      -5.5343      2.00000
      7      -2.3449      2.00000
      8       1.3650      2.00000
      9       1.3650      2.00000
     10       3.8060      0.00000
     11       7.2438      0.00000
     12       7.2438      0.00000
     13       9.0082      0.00000
     14      10.5883      0.00000
     15      12.3614      0.00000
     16      12.3614      0.00000

 k-point  1012 :       0.5000    0.5000    0.5000
  band No.  band energies     occupation 
      1      -8.6803      2.00000
      2      -6.0776      2.00000
      3      -6.0776      2.00000
      4      -5.8677      2.00000
      5      -5.8677      2.00000
      6      -5.5342      2.00000
      7      -2.3450      2.00000
      8       1.3650      2.00000
      9       1.3650      2.00000
     10       3.8060      0.00000
     11       7.2438      0.00000
     12       7.2438      0.00000
     13       9.0083      0.00000
     14      10.5885      0.00000
     15      12.3619      0.00000
     16      12.3619      0.00000


--------------------------------------------------------------------------------------------------------


 soft charge-density along one line, spin component           1
         0         1         2         3         4         5         6         7         8         9
 total charge-density along one line
 
 pseudopotential strength for first ion, spin component:           1
-17.867   0.000  -0.000   0.000   0.000   0.685   0.000   0.000
  0.000 -17.867  -0.000  -0.000   0.000   0.000   0.685   0.000
 -0.000  -0.000 -17.865  -0.000  -0.000   0.000   0.000   0.685
  0.000  -0.000  -0.000 -17.867  -0.000   0.000  -0.000   0.000
  0.000   0.000  -0.000  -0.000 -17.865  -0.000  -0.000   0.000
  0.685   0.000   0.000   0.000  -0.000   0.445  -0.000  -0.000
  0.000   0.685   0.000  -0.000  -0.000  -0.000   0.445  -0.000
  0.000   0.000   0.685   0.000   0.000  -0.000  -0.000   0.445
  0.000  -0.000   0.000   0.685   0.000  -0.000   0.000  -0.000
 -0.000  -0.000   0.000   0.000   0.685   0.000   0.000  -0.000
 -0.000   0.000   0.000   0.000  -0.000   0.000  -0.000  -0.000
  0.000  -0.000  -0.000  -0.000   0.000  -0.000   0.000   0.000
 -0.000   0.000   0.000  -0.001   0.000   0.000  -0.000  -0.000
 -0.001  -0.000   0.000  -0.000  -0.000   0.000   0.000  -0.000
 -0.000  -0.001   0.000   0.000  -0.000   0.000   0.000  -0.000
  0.000  -0.000  -0.000   0.001  -0.000  -0.000   0.000   0.000
  0.001   0.000  -0.000   0.000   0.000  -0.000  -0.000   0.000
  0.000   0.001  -0.000  -0.000   0.000  -0.000  -0.000   0.000
 total augmentation occupancy for first ion, spin component:           1
  2.000   0.000   0.000   0.000   0.000   0.000   0.000   0.000   0.000   0.000   0.000   0.000   0.000   0.000   0.000   0.000
  0.000   2.000   0.000   0.000   0.000   0.000   0.000   0.000   0.000   0.000   0.000   0.000   0.000   0.000   0.000   0.000
  0.000   0.000   2.000   0.000   0.000   0.000   0.000   0.000   0.000   0.000   0.000   0.000   0.000   0.000   0.000   0.000
  0.000   0.000   0.000   2.000   0.000   0.000   0.000   0.000   0.000   0.000   0.000   0.000   0.000   0.000   0.000   0.000
  0.000   0.000   0.000   0.000   2.000   0.000   0.000   0.000   0.000   0.000   0.000   0.000   0.000   0.000   0.000   0.000
  0.000   0.000   0.000   0.000   0.000   0.000   0.000   0.000   0.000   0.000   0.000   0.000   0.000   0.000   0.000   0.000
  0.000   0.000   0.000   0.000   0.000   0.000   0.000   0.000   0.000   0.000   0.000   0.000   0.000   0.000   0.000   0.000
  0.000   0.000   0.000   0.000   0.000   0.000   0.000   0.000   0.000   0.000   0.000   0.000   0.000   0.000   0.000   0.000
  0.000   0.000   0.000   0.000   0.000   0.000   0.000   0.000   0.000   0.000   0.000   0.000   0.000   0.000   0.000   0.000
  0.000   0.000   0.000   0.000   0.000   0.000   0.000   0.000   0.000   0.000   0.000   0.000   0.000   0.000   0.000   0.000
  0.000   0.000   0.000   0.000   0.000   0.000   0.000   0.000   0.000   0.000   2.000   0.000   0.000   0.000   0.000   0.000
  0.000   0.000   0.000   0.000   0.000   0.000   0.000   0.000   0.000   0.000   0.000   0.000   0.000   0.000   0.000   0.000
  0.000   0.000   0.000   0.000   0.000   0.000   0.000   0.000   0.000   0.000   0.000   0.000   0.000   0.000   0.000   0.000
  0.000   0.000   0.000   0.000   0.000   0.000   0.000   0.000   0.000   0.000   0.000   0.000   0.000   0.000   0.000   0.000
  0.000   0.000   0.000   0.000   0.000   0.000   0.000   0.000   0.000   0.000   0.000   0.000   0.000   0.000   0.000   0.000
  0.000   0.000   0.000   0.000   0.000   0.000   0.000   0.000   0.000   0.000   0.000   0.000   0.000   0.000   0.000   0.000
  0.000   0.000   0.000   0.000   0.000   0.000   0.000   0.000   0.000   0.000   0.000   0.000   0.000   0.000   0.000   0.000
  0.000   0.000   0.000   0.000   0.000   0.000   0.000   0.000   0.000   0.000   0.000   0.000   0.000   0.000   0.000   0.000


------------------------ aborting loop because EDIFF is reached ----------------------------------------


 


 total charge     
 
# of ion     s       p       d       tot
----------------------------------------
  1        0.483   0.324   9.521  10.328
  2        1.358   2.050   0.022   3.430
------------------------------------------------
tot        1.840   2.374   9.544  13.758
 
    CHARGE:  cpu time    0.0080: real time    0.0094
    FORLOC:  cpu time    0.0040: real time    0.0006
    FORNL :  cpu time    0.1040: real time    0.1074
    STRESS:  cpu time    1.3161: real time    1.3182
    FORCOR:  cpu time    0.0040: real time    0.0030
    FORHAR:  cpu time    0.0000: real time    0.0021
    OFIELD:  cpu time    0.0000: real time    0.0001

  FORCE on cell =-STRESS in cart. coord.  units (eV):
  Direction    XX          YY          ZZ          XY          YZ          ZX
  --------------------------------------------------------------------------------------
  Alpha Z    48.00481    48.00481    48.00481
  Ewald    -348.27726  -348.27726  -348.27726     0.00000     0.00000     0.00000
  Hartree   166.97779   166.97779   166.97779     0.00000    -0.00000    -0.00000
  E(xc)     -85.67759   -85.67759   -85.67759    -0.00000     0.00000     0.00000
  Local     -20.80724   -20.80724   -20.80724     0.00001    -0.00001    -0.00001
  n-local    25.94151    31.48392    30.56438    -1.80536    -3.16126    -1.17516
  augment     5.64425     5.64425     5.64425    -0.00001     0.00001     0.00001
  Kinetic   201.77132   205.43294   205.65075    -1.64282    -3.14212    -1.24729
  Fock        0.00000     0.00000     0.00000     0.00000     0.00000     0.00000
  -------------------------------------------------------------------------------------
  Total      -0.52030    -0.52030    -0.52030     0.00000     0.00000    -0.00000
  in kB     -12.23923   -12.23923   -12.23923     0.00000     0.00000    -0.00000
  external pressure =      -12.24 kB  Pullay stress =        0.00 kB


 VOLUME and BASIS-vectors are now :
 -----------------------------------------------------------------------------
  energy-cutoff  :      500.00
  volume of cell :       68.11
      direct lattice vectors                 reciprocal lattice vectors
     3.241350000  3.241350000  0.000000000     0.154256714  0.154256714  0.154256714
     3.241350000  0.000000000 -3.241350000     0.154256714 -0.154256714 -0.154256714
     0.000000000  3.241350000 -3.241350000    -0.154256714  0.154256714 -0.154256714

  length of vectors
     4.583961130  4.583961130  4.583961130     0.267180466  0.267180466  0.267180466


 FORCES acting on ions
    electron-ion (+dipol)            ewald-force                    non-local-force                 convergence-correction
 -----------------------------------------------------------------------------------------------
   -.280E-08 -.303E-08 0.303E-08   -.744E-14 -.454E-14 0.998E-14   -.139E-16 0.000E+00 -.173E-16   -.390E-08 -.390E-08 0.390E-08
   0.191E-06 0.198E-06 -.198E-06   0.759E-14 0.606E-14 -.102E-13   0.000E+00 0.139E-16 0.139E-16   -.442E-09 -.442E-09 0.442E-09
 -----------------------------------------------------------------------------------------------
   0.188E-06 0.195E-06 -.195E-06   0.152E-15 0.152E-14 -.238E-15   -.139E-16 0.139E-16 -.347E-17   -.435E-08 -.435E-08 0.435E-08
 
 
 POSITION                                       TOTAL-FORCE (eV/Angst)
 -----------------------------------------------------------------------------------
      0.00000      0.00000      0.00000        -0.000000      0.000000      0.000000
      1.62068      1.62068     -1.62068         0.000000     -0.000000     -0.000000
 -----------------------------------------------------------------------------------
    total drift:                                0.000000      0.000000     -0.000000


--------------------------------------------------------------------------------------------------------



  FREE ENERGIE OF THE ION-ELECTRON SYSTEM (eV)
  ---------------------------------------------------
  free  energy   TOTEN  =        -6.02034242 eV

  energy  without entropy=       -6.02034242  energy(sigma->0) =       -6.02034242
 


--------------------------------------------------------------------------------------------------------


    POTLOK:  cpu time    0.0040: real time    0.0046


--------------------------------------------------------------------------------------------------------




--------------------------------------------------------------------------------------------------------


 writing wavefunctions
     LOOP+:  cpu time   16.6650: real time   17.2579
    4ORBIT:  cpu time    0.0000: real time    0.0000
 


 total charge     
 
# of ion     s       p       d       tot
----------------------------------------
  1        0.483   0.324   9.521  10.328
  2        1.358   2.050   0.022   3.430
------------------------------------------------
tot        1.840   2.374   9.544  13.758
 

 total amount of memory used by VASP on root node   138732. kBytes
========================================================================

   base      :      30000. kBytes
   nonl-proj :      86280. kBytes
   fftplans  :        769. kBytes
   grid      :       1202. kBytes
   one-center:         15. kBytes
   wavefun   :      20466. kBytes
 
  
  
 General timing and accounting informations for this job:
 ========================================================
  
                  Total CPU time used (sec):       24.642
                            User time (sec):       19.565
                          System time (sec):        5.076
                         Elapsed time (sec):       26.149
  
                   Maximum memory used (kb):      134456.
                   Average memory used (kb):           0.
  
                          Minor page faults:        34080
                          Major page faults:            0
                 Voluntary context switches:         1262
