 vasp.5.4.1 24Jun15 (build Nov 25 2015 16:01:35) complex                        
  
 executed on         CrayXC-Intel date 2016.06.02  12:06:32
 running on   96 total cores
 distrk:  each k-point on   24 cores,    4 groups
 distr:  one band on NCORES_PER_BAND=   6 cores,    4 groups


--------------------------------------------------------------------------------------------------------


 INCAR:
 POTCAR:    PAW_PBE Ga_d 06Jul2010                
 POTCAR:    PAW_PBE As 22Sep2009                  

 ----------------------------------------------------------------------------- 
|                                                                             |
|           W    W    AA    RRRRR   N    N  II  N    N   GGGG   !!!           |
|           W    W   A  A   R    R  NN   N  II  NN   N  G    G  !!!           |
|           W    W  A    A  R    R  N N  N  II  N N  N  G       !!!           |
|           W WW W  AAAAAA  RRRRR   N  N N  II  N  N N  G  GGG   !            |
|           WW  WW  A    A  R   R   N   NN  II  N   NN  G    G                |
|           W    W  A    A  R    R  N    N  II  N    N   GGGG   !!!           |
|                                                                             |
|      You have enabled k-point parallelism (KPAR>1).                         |
|      This developmental code was originally  written by Paul Kent at ORNL,  |
|      and carefully double checked in Vienna.                                |
|      GW as well as linear response parallelism added by Martijn Marsman     |
|      and Georg Kresse.                                                      |
|      Carefully verify results versus KPAR=1.                                |
|      Report problems to Paul Kent and Vienna.                               |
|                                                                             |
 ----------------------------------------------------------------------------- 

 POTCAR:    PAW_PBE Ga_d 06Jul2010                
   VRHFIN =Ga: s2p1                                                             
   LEXCH  = PE                                                                  
   EATOM  =  2148.8298 eV,  157.9345 Ry                                         
                                                                                
   TITEL  = PAW_PBE Ga_d 06Jul2010                                              
   LULTRA =        F    use ultrasoft PP ?                                      
   IUNSCR =        1    unscreen: 0-lin 1-nonlin 2-no                           
   RPACOR =    1.700    partial core radius                                     
   POMASS =   69.723; ZVAL   =   13.000    mass and valenz                      
   RCORE  =    2.300    outmost cutoff radius                                   
   RWIGS  =    2.300; RWIGS  =    1.217    wigner-seitz radius (au A)           
   ENMAX  =  282.691; ENMIN  =  212.018 eV                                      
   ICORE  =        3    local potential                                         
   LCOR   =        T    correct aug charges                                     
   LPAW   =        T    paw PP                                                  
   EAUG   =  490.690                                                            
   DEXC   =    0.000                                                            
   RMAX   =    2.341    core radius for proj-oper                               
   RAUG   =    1.300    factor for augmentation sphere                          
   RDEP   =    2.413    radius for radial grids                                 
   RDEPT  =    1.856    core radius for aug-charge                              
                                                                                
   Atomic configuration                                                         
    9 entries                                                                   
     n  l   j            E        occ.                                          
     1  0  0.50    -10228.7831   2.0000                                         
     2  0  0.50     -1262.1604   2.0000                                         
     2  1  1.50     -1098.6333   6.0000                                         
     3  0  0.50      -148.1110   2.0000                                         
     3  1  1.50       -98.8436   6.0000                                         
     3  2  2.50       -19.1549  10.0000                                         
     4  0  0.50        -8.9483   2.0000                                         
     4  1  0.50        -2.5791   1.0000                                         
     4  3  2.50        -2.7416   0.0000                                         
   Description                                                                  
     l       E           TYP  RCUT    TYP  RCUT                                 
     2    -19.1549037     23  2.300                                             
     2     -5.4423304     23  2.300                                             
     0     -8.9483111     23  2.300                                             
     0     68.0291300     23  2.300                                             
     1     -2.5790802     23  2.100                                             
     1     81.6349560     23  2.300                                             
     3      6.8029130     23  2.300                                             
  local pseudopotential read in
  partial core-charges read in
  partial kinetic energy density read in
  atomic valenz-charges read in
  non local Contribution for L=           2  read in
    real space projection operators read in
  non local Contribution for L=           2  read in
    real space projection operators read in
  non local Contribution for L=           0  read in
    real space projection operators read in
  non local Contribution for L=           0  read in
    real space projection operators read in
  non local Contribution for L=           1  read in
    real space projection operators read in
  non local Contribution for L=           1  read in
    real space projection operators read in
    PAW grid and wavefunctions read in
 
   number of l-projection  operators is LMAX  =           6
   number of lm-projection operators is LMMAX =          18
 
 POTCAR:    PAW_PBE As 22Sep2009                  
   VRHFIN =As: s2p3                                                             
   LEXCH  = PE                                                                  
   EATOM  =   170.1867 eV,   12.5084 Ry                                         
                                                                                
   TITEL  = PAW_PBE As 22Sep2009                                                
   LULTRA =        F    use ultrasoft PP ?                                      
   IUNSCR =        1    unscreen: 0-lin 1-nonlin 2-no                           
   RPACOR =    1.900    partial core radius                                     
   POMASS =   74.922; ZVAL   =    5.000    mass and valenz                      
   RCORE  =    2.100    outmost cutoff radius                                   
   RWIGS  =    2.300; RWIGS  =    1.217    wigner-seitz radius (au A)           
   ENMAX  =  208.702; ENMIN  =  156.526 eV                                      
   ICORE  =        3    local potential                                         
   LCOR   =        T    correct aug charges                                     
   LPAW   =        T    paw PP                                                  
   EAUG   =  462.758                                                            
   DEXC   =    0.000                                                            
   RMAX   =    2.144    core radius for proj-oper                               
   RAUG   =    1.300    factor for augmentation sphere                          
   RDEP   =    2.140    radius for radial grids                                 
   RDEPT  =    1.956    core radius for aug-charge                              
                                                                                
   Atomic configuration                                                         
   10 entries                                                                   
     n  l   j            E        occ.                                          
     1  0  0.50    -11718.0418   2.0000                                         
     2  0  0.50     -1486.5454   2.0000                                         
     2  1  1.50     -1303.3889   6.0000                                         
     3  0  0.50      -190.2849   2.0000                                         
     3  1  1.50      -133.6555   6.0000                                         
     3  2  2.50       -40.6443  10.0000                                         
     4  0  0.50       -14.4936   2.0000                                         
     4  1  0.50        -5.1947   3.0000                                         
     4  2  1.50        -5.4423   0.0000                                         
     4  3  2.50        -5.4423   0.0000                                         
   Description                                                                  
     l       E           TYP  RCUT    TYP  RCUT                                 
     0    -14.4935570     23  2.100                                             
     0    -11.9212055     23  2.100                                             
     1     -5.1947127     23  2.100                                             
     1     27.2116520     23  2.100                                             
     2     -5.4423304     23  2.100                                             
     3     -1.3605826      7  2.100                                             
  local pseudopotential read in
  partial core-charges read in
  partial kinetic energy density read in
  atomic valenz-charges read in
  non local Contribution for L=           0  read in
    real space projection operators read in
  non local Contribution for L=           0  read in
    real space projection operators read in
  non local Contribution for L=           1  read in
    real space projection operators read in
  non local Contribution for L=           1  read in
    real space projection operators read in
  non local Contribution for L=           2  read in
    real space projection operators read in
    PAW grid and wavefunctions read in
 
   number of l-projection  operators is LMAX  =           5
   number of lm-projection operators is LMMAX =          13
 

 ----------------------------------------------------------------------------- 
|                                                                             |
|  ADVICE TO THIS USER RUNNING 'VASP/VAMP'   (HEAR YOUR MASTER'S VOICE ...):  |
|                                                                             |
|      You enforced a specific xc-type in the INCAR file,                     |
|      a different type was found on the POTCAR file                          |
|          I HOPE YOU KNOW, WHAT YOU ARE  DOING                               |
|                                                                             |
 ----------------------------------------------------------------------------- 

  PAW_PBE Ga_d 06Jul2010                :
 energy of atom  1       EATOM=-2148.8298
 kinetic energy error for atom=    0.0026 (will be added to EATOM!!)
  PAW_PBE As 22Sep2009                  :
 energy of atom  2       EATOM= -170.1867
 kinetic energy error for atom=    0.0005 (will be added to EATOM!!)
 
 
 POSCAR: GaAs (Madelung Handbook, RT)            
  positions in direct lattice
  velocities in cartesian coordinates
 exchange correlation table for  LEXCH =       14
   RHO(1)=    0.500       N(1)  =     2000
   RHO(2)=  100.500       N(2)  =     4000
 


--------------------------------------------------------------------------------------------------------


 ion  position               nearest neighbor table
   1  0.000  0.000  0.000-   2 2.45   2 2.45   2 2.45   2 2.45
   2  0.250  0.250  0.250-   1 2.45   1 2.45   1 2.45   1 2.45
 
  LATTYP: Found a face centered cubic cell.
 ALAT       =     5.6536000000
  
  Lattice vectors:
  
 A1 = (   2.8268000000,   2.8268000000,   0.0000000000)
 A2 = (   2.8268000000,   0.0000000000,  -2.8268000000)
 A3 = (   0.0000000000,   2.8268000000,  -2.8268000000)


Analysis of symmetry for initial positions (statically):
=====================================================================
 Subroutine PRICEL returns:
 Original cell was already a primitive cell.
 

 Routine SETGRP: Setting up the symmetry group for a 
 face centered cubic supercell.


 Subroutine GETGRP returns: Found 24 space group operations
 (whereof 24 operations were pure point group operations)
 out of a pool of 48 trial point group operations.


The static configuration has the point symmetry T_d .


Analysis of symmetry for dynamics (positions and initial velocities):
=====================================================================
 Subroutine PRICEL returns:
 Original cell was already a primitive cell.
 

 Routine SETGRP: Setting up the symmetry group for a 
 face centered cubic supercell.


 Subroutine GETGRP returns: Found 24 space group operations
 (whereof 24 operations were pure point group operations)
 out of a pool of 48 trial point group operations.


The dynamic configuration has the point symmetry T_d .


 Subroutine INISYM returns: Found 24 space group operations
 (whereof 24 operations are pure point group operations),
 and found     1 'primitive' translations

 
 
 KPOINTS: Automatically generated mesh: SCF 16, 0.
  k-points in reciprocal lattice
Space group operators:
 irot       det(A)        alpha          n_x          n_y          n_z        tau_x        tau_y        tau_z
    1     1.000000     0.000000     1.000000     0.000000     0.000000     0.000000     0.000000     0.000000
    2     1.000000   120.000000    -0.577350    -0.577350     0.577350     0.000000     0.000000     0.000000
    3     1.000000   120.000000     0.577350     0.577350    -0.577350     0.000000     0.000000     0.000000
    4    -1.000000    90.000000    -1.000000     0.000000     0.000000     0.000000     0.000000     0.000000
    5    -1.000000   180.000000     0.707107     0.707107     0.000000     0.000000     0.000000     0.000000
    6    -1.000000    90.000000     0.000000     1.000000     0.000000     0.000000     0.000000     0.000000
    7     1.000000   180.000000     1.000000     0.000000     0.000000     0.000000     0.000000     0.000000
    8     1.000000   120.000000     0.577350     0.577350     0.577350     0.000000     0.000000     0.000000
    9     1.000000   120.000000    -0.577350     0.577350     0.577350     0.000000     0.000000     0.000000
   10    -1.000000    90.000000     1.000000     0.000000     0.000000     0.000000     0.000000     0.000000
   11    -1.000000    90.000000     0.000000     0.000000     1.000000     0.000000     0.000000     0.000000
   12    -1.000000   180.000000     0.707107     0.000000    -0.707107     0.000000     0.000000     0.000000
   13     1.000000   120.000000     0.577350    -0.577350    -0.577350     0.000000     0.000000     0.000000
   14     1.000000   120.000000     0.577350    -0.577350     0.577350     0.000000     0.000000     0.000000
   15     1.000000   180.000000     0.000000     0.000000     1.000000     0.000000     0.000000     0.000000
   16    -1.000000    90.000000     0.000000    -1.000000     0.000000     0.000000     0.000000     0.000000
   17    -1.000000   180.000000     0.000000    -0.707107     0.707107     0.000000     0.000000     0.000000
   18    -1.000000    90.000000     0.000000     0.000000    -1.000000     0.000000     0.000000     0.000000
   19     1.000000   120.000000    -0.577350    -0.577350    -0.577350     0.000000     0.000000     0.000000
   20     1.000000   180.000000     0.000000     1.000000     0.000000     0.000000     0.000000     0.000000
   21     1.000000   120.000000    -0.577350     0.577350    -0.577350     0.000000     0.000000     0.000000
   22    -1.000000   180.000000     0.707107    -0.707107     0.000000     0.000000     0.000000     0.000000
   23    -1.000000   180.000000     0.000000     0.707107     0.707107     0.000000     0.000000     0.000000
   24    -1.000000   180.000000     0.707107     0.000000     0.707107     0.000000     0.000000     0.000000


--------------------------------------------------------------------------------------------------------




 Dimension of arrays:
   k-points           NKPTS =   1158   k-points in BZ     NKDIM =   1158   number of bands    NBANDS=     16
   number of dos      NEDOS =    301   number of ions     NIONS =      2
   non local maximal  LDIM  =      6   non local SUM 2l+1 LMDIM =     18
   total plane-waves  NPLWV =  27000
   max r-space proj   IRMAX =      1   max aug-charges    IRDMAX=  24927
   dimension x,y,z NGX =    30 NGY =   30 NGZ =   30
   dimension x,y,z NGXF=    60 NGYF=   60 NGZF=   60
   support grid    NGXF=    60 NGYF=   60 NGZF=   60
   ions per type =               1   1
 NGX,Y,Z   is equivalent  to a cutoff of  12.48, 12.48, 12.48 a.u.
 NGXF,Y,Z  is equivalent  to a cutoff of  24.95, 24.95, 24.95 a.u.


 I would recommend the setting:
   dimension x,y,z NGX =    29 NGY =   29 NGZ =   29
 SYSTEM =  Name                                    
 POSCAR =  GaAs (Madelung Handbook, RT)            

 Startparameter for this run:
   NWRITE =      2    write-flag & timer
   PREC   = accura    normal or accurate (medium, high low for compatibility)
   ISTART =      0    job   : 0-new  1-cont  2-samecut
   ICHARG =     11    charge: 1-file 2-atom 10-const
   ISPIN  =      1    spin polarized calculation?
   LNONCOLLINEAR =      F non collinear calculations
   LSORBIT =      F    spin-orbit coupling
   INIWAV =      1    electr: 0-lowe 1-rand  2-diag
   LASPH  =      F    aspherical Exc in radial PAW
   METAGGA=      F    non-selfconsistent MetaGGA calc.

 Electronic Relaxation 1
   ENCUT  =  500.0 eV  36.75 Ry    6.06 a.u.   7.29  7.29  7.29*2*pi/ulx,y,z
   ENINI  =  500.0     initial cutoff
   ENAUG  =  490.7 eV  augmentation charge cutoff
   NELM   =     60;   NELMIN=  2; NELMDL=  0     # of ELM steps 
   EDIFF  = 0.1E-05   stopping-criterion for ELM
   LREAL  =      F    real-space projection
   NLSPLINE    = F    spline interpolate recip. space projectors
   LCOMPAT=      F    compatible to vasp.4.4
   GGA_COMPAT  = T    GGA compatible to vasp.4.4-vasp.4.6
   LMAXPAW     = -100 max onsite density
   LMAXMIX     =    2 max onsite mixed and CHGCAR
   VOSKOWN=      0    Vosko Wilk Nusair interpolation
   ROPT   =    0.00000   0.00000
 Ionic relaxation
   EDIFFG = -.5E-02   stopping-criterion for IOM
   NSW    =      1    number of steps for IOM
   NBLOCK =      1;   KBLOCK =      1    inner block; outer block 
   IBRION =      2    ionic relax: 0-MD 1-quasi-New 2-CG
   NFREE  =      1    steps in history (QN), initial steepest desc. (CG)
   ISIF   =      3    stress and relaxation
   IWAVPR =     11    prediction:  0-non 1-charg 2-wave 3-comb
   ISYM   =      2    0-nonsym 1-usesym 2-fastsym
   LCORR  =      T    Harris-Foulkes like correction to forces

   POTIM  = 0.5000    time-step for ionic-motion
   TEIN   =    0.0    initial temperature
   TEBEG  =    0.0;   TEEND  =   0.0 temperature during run
   SMASS  =  -3.00    Nose mass-parameter (am)
   estimated Nose-frequenzy (Omega)   =  0.10E-29 period in steps =****** mass=  -0.365E-27a.u.
   SCALEE = 1.0000    scale energy and forces
   NPACO  =    256;   APACO  = 16.0  distance and # of slots for P.C.
   PSTRESS=    0.0 pullay stress

  Mass of Ions in am
   POMASS =  69.72 74.92
  Ionic Valenz
   ZVAL   =  13.00  5.00
  Atomic Wigner-Seitz radii
   RWIGS  =  -1.00 -1.00
  virtual crystal weights 
   VCA    =   1.00  1.00
   NELECT =      18.0000    total number of electrons
   NUPDOWN=      -1.0000    fix difference up-down

 DOS related values:
   EMIN   =  10.00;   EMAX   =-10.00  energy-range for DOS
   EFERMI =   0.00
   ISMEAR =     0;   SIGMA  =   0.01  broadening in eV -4-tet -1-fermi 0-gaus

 Electronic relaxation 2 (details)
   IALGO  =     38    algorithm
   LDIAG  =      T    sub-space diagonalisation (order eigenvalues)
   LSUBROT=      F    optimize rotation matrix (better conditioning)
   TURBO    =      0    0=normal 1=particle mesh
   IRESTART =      0    0=no restart 2=restart with 2 vectors
   NREBOOT  =      0    no. of reboots
   NMIN     =      0    reboot dimension
   EREF     =   0.00    reference energy to select bands
   IMIX   =      4    mixing-type and parameters
     AMIX     =   0.40;   BMIX     =  1.00
     AMIX_MAG =   1.60;   BMIX_MAG =  1.00
     AMIN     =   0.01
     WC   =   100.;   INIMIX=   1;  MIXPRE=   1;  MAXMIX= -45

 Intra band minimization:
   WEIMIN = 0.0010     energy-eigenvalue tresh-hold
   EBREAK =  0.16E-07  absolut break condition
   DEPER  =   0.30     relativ break condition  

   TIME   =   0.40     timestep for ELM

  volume/ion in A,a.u.               =      22.59       152.43
  Fermi-wavevector in a.u.,A,eV,Ry     =   1.204649  2.276457 19.744497  1.451180
  Thomas-Fermi vector in A             =   2.340368
 
 Write flags
   LWAVE  =      T    write WAVECAR
   LCHARG =      T    write CHGCAR
   LVTOT  =      F    write LOCPOT, total local potential
   LVHAR  =      F    write LOCPOT, Hartree potential only
   LELF   =      F    write electronic localiz. function (ELF)
   LORBIT =     10    0 simple, 1 ext, 2 COOP (PROOUT)


 Dipole corrections
   LMONO  =      F    monopole corrections only (constant potential shift)
   LDIPOL =      F    correct potential (dipole corrections)
   IDIPOL =      0    1-x, 2-y, 3-z, 4-all directions 
   EPSILON=  1.0000000 bulk dielectric constant

 Core level calculations are selected ICORELEVEL =  1
 Exchange correlation treatment:
   GGA     =    PS    GGA type
   LEXCH   =    14    internal setting for exchange type
   VOSKOWN=      0    Vosko Wilk Nusair interpolation
   LHFCALC =     F    Hartree Fock is set to
   LHFONE  =     F    Hartree Fock one center treatment
   AEXX    =    0.0000 exact exchange contribution

 Linear response parameters
   LEPSILON=     F    determine dielectric tensor
   LRPA    =     F    only Hartree local field effects (RPA)
   LNABLA  =     F    use nabla operator in PAW spheres
   LVEL    =     F    velocity operator in full k-point grid
   LINTERFAST=   F  fast interpolation
   KINTER  =     0    interpolate to denser k-point grid
   CSHIFT  =0.1000    complex shift for real part using Kramers Kronig
   OMEGAMAX=  -1.0    maximum frequency
   DEG_THRESHOLD= 0.2000000E-02 threshold for treating states as degnerate
   RTIME   =    0.100 relaxation time in fs

 Orbital magnetization related:
   ORBITALMAG=     F  switch on orbital magnetization
   LCHIMAG   =     F  perturbation theory with respect to B field
   DQ        =  0.001000  dq finite difference perturbation B field



--------------------------------------------------------------------------------------------------------


 conjugate gradient relaxation of ions
 charge density and potential remain constant during run
 non-spin polarized calculation
 Variant of blocked Davidson
 Davidson routine will perform the subspace rotation
 perform sub-space diagonalisation
    after iterative eigenvector-optimisation
 no mixing
 using additional bands            7
 reciprocal scheme for non local part
 use partial core corrections
 calculate Harris-corrections to forces 
   (improved forces if not selfconsistent)
 use gradient corrections 
 WARNING: stress and forces are not correct
  (second derivative of E(xc) not defined)
 use of overlap-Matrix (Vanderbilt PP)
 Gauss-broadening in eV      SIGMA  =   0.01


--------------------------------------------------------------------------------------------------------


  energy-cutoff  :      500.00
  volume of cell :       45.18
      direct lattice vectors                 reciprocal lattice vectors
     2.826800000  2.826800000  0.000000000     0.176878449  0.176878449  0.176878449
     2.826800000  0.000000000 -2.826800000     0.176878449 -0.176878449 -0.176878449
     0.000000000  2.826800000 -2.826800000    -0.176878449  0.176878449 -0.176878449

  length of vectors
     3.997698898  3.997698898  3.997698898     0.306362461  0.306362461  0.306362461


 
 k-points in units of 2pi/SCALE and weight: Automatically generated mesh: SCF 16, 0.
   0.00000000  0.00000000  0.00000000       0.005
   0.16666667  0.16666667  0.16666667       0.037
   0.33333333  0.33333333  0.33333333       0.037
   0.50000000  0.50000000  0.50000000       0.019
   0.33333333  0.00000000  0.00000000       0.028
   0.50000000  0.16666667  0.16666667       0.111
   0.66666667  0.33333333  0.33333333       0.111
  -0.16666667 -0.50000000 -0.50000000       0.111
   0.00000000 -0.33333333 -0.33333333       0.056
   0.66666667  0.00000000  0.00000000       0.028
   0.83333333  0.16666667  0.16666667       0.111
   0.00000000 -0.66666667 -0.66666667       0.056
   1.00000000  0.00000000  0.00000000       0.014
   0.66666667  0.33333333  0.00000000       0.111
  -0.16666667 -0.50000000 -0.83333333       0.111
   0.00000000 -0.66666667 -1.00000000       0.056
   0.00000000  0.00000000  0.00000000       0.000
   0.00000000  0.00366300  0.00000000       0.000
   0.00000000  0.00732600  0.00000000       0.000
   0.00000000  0.01098902  0.00000000       0.000
   0.00000000  0.01465202  0.00000000       0.000
   0.00000000  0.01831502  0.00000000       0.000
   0.00000000  0.02197802  0.00000000       0.000
   0.00000000  0.02564102  0.00000000       0.000
   0.00000000  0.02930402  0.00000000       0.000
   0.00000000  0.03296704  0.00000000       0.000
   0.00000000  0.03663004  0.00000000       0.000
   0.00000000  0.04029304  0.00000000       0.000
   0.00000000  0.04395604  0.00000000       0.000
   0.00000000  0.04761904  0.00000000       0.000
   0.00000000  0.05128206  0.00000000       0.000
   0.00000000  0.05494506  0.00000000       0.000
   0.00000000  0.05860806  0.00000000       0.000
   0.00000000  0.06227106  0.00000000       0.000
   0.00000000  0.06593406  0.00000000       0.000
   0.00000000  0.06959708  0.00000000       0.000
   0.00000000  0.07326008  0.00000000       0.000
   0.00000000  0.07692308  0.00000000       0.000
   0.00000000  0.08058608  0.00000000       0.000
   0.00000000  0.08424908  0.00000000       0.000
   0.00000000  0.08791210  0.00000000       0.000
   0.00000000  0.09157510  0.00000000       0.000
   0.00000000  0.09523810  0.00000000       0.000
   0.00000000  0.09890110  0.00000000       0.000
   0.00000000  0.10256410  0.00000000       0.000
   0.00000000  0.10622710  0.00000000       0.000
   0.00000000  0.10989012  0.00000000       0.000
   0.00000000  0.11355312  0.00000000       0.000
   0.00000000  0.11721612  0.00000000       0.000
   0.00000000  0.12087912  0.00000000       0.000
   0.00000000  0.12454212  0.00000000       0.000
   0.00000000  0.12820514  0.00000000       0.000
   0.00000000  0.13186814  0.00000000       0.000
   0.00000000  0.13553114  0.00000000       0.000
   0.00000000  0.13919414  0.00000000       0.000
   0.00000000  0.14285714  0.00000000       0.000
   0.00000000  0.14652016  0.00000000       0.000
   0.00000000  0.15018316  0.00000000       0.000
   0.00000000  0.15384616  0.00000000       0.000
   0.00000000  0.15750916  0.00000000       0.000
   0.00000000  0.16117216  0.00000000       0.000
   0.00000000  0.16483516  0.00000000       0.000
   0.00000000  0.16849818  0.00000000       0.000
   0.00000000  0.17216118  0.00000000       0.000
   0.00000000  0.17582418  0.00000000       0.000
   0.00000000  0.17948718  0.00000000       0.000
   0.00000000  0.18315018  0.00000000       0.000
   0.00000000  0.18681320  0.00000000       0.000
   0.00000000  0.19047620  0.00000000       0.000
   0.00000000  0.19413920  0.00000000       0.000
   0.00000000  0.19780220  0.00000000       0.000
   0.00000000  0.20146520  0.00000000       0.000
   0.00000000  0.20512820  0.00000000       0.000
   0.00000000  0.20879122  0.00000000       0.000
   0.00000000  0.21245422  0.00000000       0.000
   0.00000000  0.21611722  0.00000000       0.000
   0.00000000  0.21978022  0.00000000       0.000
   0.00000000  0.22344322  0.00000000       0.000
   0.00000000  0.22710622  0.00000000       0.000
   0.00000000  0.23076924  0.00000000       0.000
   0.00000000  0.23443224  0.00000000       0.000
   0.00000000  0.23809524  0.00000000       0.000
   0.00000000  0.24175824  0.00000000       0.000
   0.00000000  0.24542124  0.00000000       0.000
   0.00000000  0.24908424  0.00000000       0.000
   0.00000000  0.25274726  0.00000000       0.000
   0.00000000  0.25641028  0.00000000       0.000
   0.00000000  0.26007328  0.00000000       0.000
   0.00000000  0.26373628  0.00000000       0.000
   0.00000000  0.26739928  0.00000000       0.000
   0.00000000  0.27106228  0.00000000       0.000
   0.00000000  0.27472528  0.00000000       0.000
   0.00000000  0.27838830  0.00000000       0.000
   0.00000000  0.28205130  0.00000000       0.000
   0.00000000  0.28571430  0.00000000       0.000
   0.00000000  0.28937730  0.00000000       0.000
   0.00000000  0.29304030  0.00000000       0.000
   0.00000000  0.29670330  0.00000000       0.000
   0.00000000  0.30036632  0.00000000       0.000
   0.00000000  0.30402932  0.00000000       0.000
   0.00000000  0.30769232  0.00000000       0.000
   0.00000000  0.31135532  0.00000000       0.000
   0.00000000  0.31501832  0.00000000       0.000
   0.00000000  0.31868132  0.00000000       0.000
   0.00000000  0.32234434  0.00000000       0.000
   0.00000000  0.32600734  0.00000000       0.000
   0.00000000  0.32967034  0.00000000       0.000
   0.00000000  0.33333334  0.00000000       0.000
   0.00000000  0.33699634  0.00000000       0.000
   0.00000000  0.34065936  0.00000000       0.000
   0.00000000  0.34432236  0.00000000       0.000
   0.00000000  0.34798536  0.00000000       0.000
   0.00000000  0.35164836  0.00000000       0.000
   0.00000000  0.35531134  0.00000000       0.000
   0.00000000  0.35897436  0.00000000       0.000
   0.00000000  0.36263740  0.00000000       0.000
   0.00000000  0.36630038  0.00000000       0.000
   0.00000000  0.36996334  0.00000000       0.000
   0.00000000  0.37362638  0.00000000       0.000
   0.00000000  0.37728942  0.00000000       0.000
   0.00000000  0.38095238  0.00000000       0.000
   0.00000000  0.38461536  0.00000000       0.000
   0.00000000  0.38827840  0.00000000       0.000
   0.00000000  0.39194142  0.00000000       0.000
   0.00000000  0.39560440  0.00000000       0.000
   0.00000000  0.39926738  0.00000000       0.000
   0.00000000  0.40293040  0.00000000       0.000
   0.00000000  0.40659344  0.00000000       0.000
   0.00000000  0.41025642  0.00000000       0.000
   0.00000000  0.41391938  0.00000000       0.000
   0.00000000  0.41758242  0.00000000       0.000
   0.00000000  0.42124546  0.00000000       0.000
   0.00000000  0.42490842  0.00000000       0.000
   0.00000000  0.42857140  0.00000000       0.000
   0.00000000  0.43223444  0.00000000       0.000
   0.00000000  0.43589746  0.00000000       0.000
   0.00000000  0.43956044  0.00000000       0.000
   0.00000000  0.44322342  0.00000000       0.000
   0.00000000  0.44688646  0.00000000       0.000
   0.00000000  0.45054948  0.00000000       0.000
   0.00000000  0.45421246  0.00000000       0.000
   0.00000000  0.45787546  0.00000000       0.000
   0.00000000  0.46153846  0.00000000       0.000
   0.00000000  0.46520150  0.00000000       0.000
   0.00000000  0.46886448  0.00000000       0.000
   0.00000000  0.47252748  0.00000000       0.000
   0.00000000  0.47619048  0.00000000       0.000
   0.00000000  0.47985352  0.00000000       0.000
   0.00000000  0.48351648  0.00000000       0.000
   0.00000000  0.48717948  0.00000000       0.000
   0.00000000  0.49084250  0.00000000       0.000
   0.00000000  0.49450552  0.00000000       0.000
   0.00000000  0.49816850  0.00000000       0.000
   0.00000000  0.50183148  0.00000000       0.000
   0.00000000  0.50549454  0.00000000       0.000
   0.00000000  0.50915754  0.00000000       0.000
   0.00000000  0.51282054  0.00000000       0.000
   0.00000000  0.51648348  0.00000000       0.000
   0.00000000  0.52014654  0.00000000       0.000
   0.00000000  0.52380956  0.00000000       0.000
   0.00000000  0.52747256  0.00000000       0.000
   0.00000000  0.53113550  0.00000000       0.000
   0.00000000  0.53479856  0.00000000       0.000
   0.00000000  0.53846156  0.00000000       0.000
   0.00000000  0.54212456  0.00000000       0.000
   0.00000000  0.54578752  0.00000000       0.000
   0.00000000  0.54945058  0.00000000       0.000
   0.00000000  0.55311358  0.00000000       0.000
   0.00000000  0.55677658  0.00000000       0.000
   0.00000000  0.56043952  0.00000000       0.000
   0.00000000  0.56410260  0.00000000       0.000
   0.00000000  0.56776560  0.00000000       0.000
   0.00000000  0.57142860  0.00000000       0.000
   0.00000000  0.57509154  0.00000000       0.000
   0.00000000  0.57875460  0.00000000       0.000
   0.00000000  0.58241760  0.00000000       0.000
   0.00000000  0.58608062  0.00000000       0.000
   0.00000000  0.58974356  0.00000000       0.000
   0.00000000  0.59340662  0.00000000       0.000
   0.00000000  0.59706962  0.00000000       0.000
   0.00000000  0.60073262  0.00000000       0.000
   0.00000000  0.60439556  0.00000000       0.000
   0.00000000  0.60805864  0.00000000       0.000
   0.00000000  0.61172164  0.00000000       0.000
   0.00000000  0.61538464  0.00000000       0.000
   0.00000000  0.61904758  0.00000000       0.000
   0.00000000  0.62271064  0.00000000       0.000
   0.00000000  0.62637364  0.00000000       0.000
   0.00000000  0.63003666  0.00000000       0.000
   0.00000000  0.63369966  0.00000000       0.000
   0.00000000  0.63736266  0.00000000       0.000
   0.00000000  0.64102566  0.00000000       0.000
   0.00000000  0.64468866  0.00000000       0.000
   0.00000000  0.64835166  0.00000000       0.000
   0.00000000  0.65201468  0.00000000       0.000
   0.00000000  0.65567768  0.00000000       0.000
   0.00000000  0.65934068  0.00000000       0.000
   0.00000000  0.66300368  0.00000000       0.000
   0.00000000  0.66666668  0.00000000       0.000
   0.00000000  0.67032968  0.00000000       0.000
   0.00000000  0.67399270  0.00000000       0.000
   0.00000000  0.67765570  0.00000000       0.000
   0.00000000  0.68131870  0.00000000       0.000
   0.00000000  0.68498170  0.00000000       0.000
   0.00000000  0.68864470  0.00000000       0.000
   0.00000000  0.69230772  0.00000000       0.000
   0.00000000  0.69597072  0.00000000       0.000
   0.00000000  0.69963372  0.00000000       0.000
   0.00000000  0.70329672  0.00000000       0.000
   0.00000000  0.70695972  0.00000000       0.000
   0.00000000  0.71062266  0.00000000       0.000
   0.00000000  0.71428574  0.00000000       0.000
   0.00000000  0.71794874  0.00000000       0.000
   0.00000000  0.72161174  0.00000000       0.000
   0.00000000  0.72527480  0.00000000       0.000
   0.00000000  0.72893774  0.00000000       0.000
   0.00000000  0.73260074  0.00000000       0.000
   0.00000000  0.73626376  0.00000000       0.000
   0.00000000  0.73992670  0.00000000       0.000
   0.00000000  0.74358976  0.00000000       0.000
   0.00000000  0.74725276  0.00000000       0.000
   0.00000000  0.75091576  0.00000000       0.000
   0.00000000  0.75457882  0.00000000       0.000
   0.00000000  0.75824178  0.00000000       0.000
   0.00000000  0.76190478  0.00000000       0.000
   0.00000000  0.76556778  0.00000000       0.000
   0.00000000  0.76923072  0.00000000       0.000
   0.00000000  0.77289378  0.00000000       0.000
   0.00000000  0.77655678  0.00000000       0.000
   0.00000000  0.78021980  0.00000000       0.000
   0.00000000  0.78388286  0.00000000       0.000
   0.00000000  0.78754580  0.00000000       0.000
   0.00000000  0.79120880  0.00000000       0.000
   0.00000000  0.79487180  0.00000000       0.000
   0.00000000  0.79853476  0.00000000       0.000
   0.00000000  0.80219782  0.00000000       0.000
   0.00000000  0.80586082  0.00000000       0.000
   0.00000000  0.80952382  0.00000000       0.000
   0.00000000  0.81318688  0.00000000       0.000
   0.00000000  0.81684982  0.00000000       0.000
   0.00000000  0.82051284  0.00000000       0.000
   0.00000000  0.82417584  0.00000000       0.000
   0.00000000  0.82783878  0.00000000       0.000
   0.00000000  0.83150184  0.00000000       0.000
   0.00000000  0.83516484  0.00000000       0.000
   0.00000000  0.83882784  0.00000000       0.000
   0.00000000  0.84249092  0.00000000       0.000
   0.00000000  0.84615386  0.00000000       0.000
   0.00000000  0.84981686  0.00000000       0.000
   0.00000000  0.85347986  0.00000000       0.000
   0.00000000  0.85714280  0.00000000       0.000
   0.00000000  0.86080592  0.00000000       0.000
   0.00000000  0.86446888  0.00000000       0.000
   0.00000000  0.86813188  0.00000000       0.000
   0.00000000  0.87179494  0.00000000       0.000
   0.00000000  0.87545794  0.00000000       0.000
   0.00000000  0.87912088  0.00000000       0.000
   0.00000000  0.88278388  0.00000000       0.000
   0.00000000  0.88644684  0.00000000       0.000
   0.00000000  0.89010996  0.00000000       0.000
   0.00000000  0.89377290  0.00000000       0.000
   0.00000000  0.89743590  0.00000000       0.000
   0.00000000  0.90109896  0.00000000       0.000
   0.00000000  0.90476198  0.00000000       0.000
   0.00000000  0.90842492  0.00000000       0.000
   0.00000000  0.91208792  0.00000000       0.000
   0.00000000  0.91575092  0.00000000       0.000
   0.00000000  0.91941398  0.00000000       0.000
   0.00000000  0.92307692  0.00000000       0.000
   0.00000000  0.92673994  0.00000000       0.000
   0.00000000  0.93040300  0.00000000       0.000
   0.00000000  0.93406600  0.00000000       0.000
   0.00000000  0.93772894  0.00000000       0.000
   0.00000000  0.94139194  0.00000000       0.000
   0.00000000  0.94505494  0.00000000       0.000
   0.00000000  0.94871802  0.00000000       0.000
   0.00000000  0.95238096  0.00000000       0.000
   0.00000000  0.95604396  0.00000000       0.000
   0.00000000  0.95970702  0.00000000       0.000
   0.00000000  0.96337002  0.00000000       0.000
   0.00000000  0.96703296  0.00000000       0.000
   0.00000000  0.97069598  0.00000000       0.000
   0.00000000  0.97435898  0.00000000       0.000
   0.00000000  0.97802204  0.00000000       0.000
   0.00000000  0.98168498  0.00000000       0.000
   0.00000000  0.98534798  0.00000000       0.000
   0.00000000  0.98901104  0.00000000       0.000
   0.00000000  0.99267406  0.00000000       0.000
   0.00000000  0.99633700  0.00000000       0.000
   0.00000000  1.00000000  0.00000000       0.000
  -0.00000003  0.99861113 -0.00416669       0.000
   0.00000003  0.99722221 -0.00833331       0.000
   0.00000001  0.99583333 -0.01249999       0.000
  -0.00000003  0.99444445 -0.01666669       0.000
   0.00000004  0.99305554 -0.02083330       0.000
   0.00000001  0.99166667 -0.02499999       0.000
  -0.00000002  0.99027778 -0.02916668       0.000
  -0.00000004  0.98888890 -0.03333338       0.000
   0.00000002  0.98750000 -0.03749998       0.000
  -0.00000002  0.98611112 -0.04166668       0.000
  -0.00000003  0.98472223 -0.04583337       0.000
   0.00000002  0.98333332 -0.04999998       0.000
  -0.00000001  0.98194445 -0.05416667       0.000
  -0.00000003  0.98055557 -0.05833337       0.000
   0.00000003  0.97916665 -0.06249997       0.000
   0.00000000  0.97777778 -0.06666666       0.000
  -0.00000002  0.97638890 -0.07083336       0.000
   0.00000003  0.97499999 -0.07499997       0.000
   0.00000001  0.97361111 -0.07916665       0.000
  -0.00000003  0.97222223 -0.08333335       0.000
   0.00000004  0.97083332 -0.08749996       0.000
   0.00000001  0.96944445 -0.09166665       0.000
  -0.00000001  0.96805555 -0.09583335       0.000
   0.00000005  0.96666665 -0.09999995       0.000
   0.00000003  0.96527777 -0.10416665       0.000
  -0.00000002  0.96388890 -0.10833334       0.000
  -0.00000003  0.96250001 -0.11250003       0.000
   0.00000002  0.96111110 -0.11666664       0.000
  -0.00000001  0.95972223 -0.12083333       0.000
  -0.00000003  0.95833335 -0.12500003       0.000
   0.00000003  0.95694443 -0.12916663       0.000
   0.00000000  0.95555556 -0.13333332       0.000
  -0.00000002  0.95416668 -0.13750002       0.000
   0.00000003  0.95277777 -0.14166663       0.000
   0.00000001  0.95138889 -0.14583331       0.000
  -0.00000002  0.95000000 -0.15000002       0.000
   0.00000004  0.94861110 -0.15416662       0.000
   0.00000002  0.94722222 -0.15833332       0.000
  -0.00000001  0.94583333 -0.16250001       0.000
  -0.00000004  0.94444446 -0.16666670       0.000
   0.00000002  0.94305556 -0.17083330       0.000
  -0.00000001  0.94166667 -0.17500001       0.000
  -0.00000003  0.94027779 -0.17916669       0.000
   0.00000003  0.93888887 -0.18333331       0.000
  -0.00000000  0.93750000 -0.18750000       0.000
  -0.00000003  0.93611113 -0.19166669       0.000
   0.00000002  0.93472222 -0.19583330       0.000
   0.00000001  0.93333333 -0.19999999       0.000
  -0.00000003  0.93194445 -0.20416669       0.000
   0.00000004  0.93055554 -0.20833330       0.000
   0.00000001  0.92916667 -0.21249999       0.000
  -0.00000002  0.92777778 -0.21666668       0.000
  -0.00000004  0.92638890 -0.22083338       0.000
   0.00000002  0.92500000 -0.22499998       0.000
  -0.00000001  0.92361111 -0.22916669       0.000
   0.00000006  0.92222220 -0.23333328       0.000
   0.00000002  0.92083332 -0.23749998       0.000
  -0.00000001  0.91944445 -0.24166667       0.000
  -0.00000003  0.91805557 -0.24583337       0.000
   0.00000003  0.91666665 -0.24999997       0.000
   0.00000000  0.91527778 -0.25416666       0.000
  -0.00000003  0.91388891 -0.25833335       0.000
   0.00000002  0.91250000 -0.26249996       0.000
   0.00000001  0.91111111 -0.26666665       0.000
  -0.00000003  0.90972223 -0.27083335       0.000
  -0.00000005  0.90833335 -0.27500005       0.000
   0.00000001  0.90694445 -0.27916665       0.000
  -0.00000001  0.90555555 -0.28333335       0.000
   0.00000005  0.90416665 -0.28749995       0.000
   0.00000002  0.90277778 -0.29166664       0.000
  -0.00000002  0.90138890 -0.29583334       0.000
  -0.00000004  0.90000002 -0.30000002       0.000
   0.00000003  0.89861109 -0.30416665       0.000
   0.00000000  0.89722222 -0.30833334       0.000
  -0.00000004  0.89583336 -0.31250002       0.000
   0.00000003  0.89444443 -0.31666663       0.000
   0.00000000  0.89305556 -0.32083332       0.000
  -0.00000001  0.89166667 -0.32500003       0.000
   0.00000003  0.89027777 -0.32916663       0.000
   0.00000001  0.88888889 -0.33333331       0.000
  -0.00000002  0.88750000 -0.33750002       0.000
   0.00000003  0.88611111 -0.34166661       0.000
   0.00000002  0.88472222 -0.34583332       0.000
  -0.00000001  0.88333333 -0.35000001       0.000
  -0.00000003  0.88194445 -0.35416671       0.000
   0.00000002  0.88055556 -0.35833330       0.000
  -0.00000002  0.87916668 -0.36250000       0.000
  -0.00000002  0.87777778 -0.36666670       0.000
   0.00000003  0.87638887 -0.37083331       0.000
  -0.00000000  0.87500000 -0.37500000       0.000
  -0.00000003  0.87361113 -0.37916669       0.000
   0.00000002  0.87222222 -0.38333330       0.000
   0.00000000  0.87083334 -0.38749998       0.000
  -0.00000003  0.86944445 -0.39166669       0.000
   0.00000004  0.86805554 -0.39583330       0.000
   0.00000001  0.86666667 -0.39999999       0.000
  -0.00000003  0.86527779 -0.40416667       0.000
  -0.00000004  0.86388890 -0.40833338       0.000
   0.00000002  0.86250000 -0.41249998       0.000
  -0.00000001  0.86111111 -0.41666669       0.000
   0.00000005  0.85972221 -0.42083327       0.000
   0.00000001  0.85833333 -0.42499997       0.000
   0.00000000  0.85694444 -0.42916668       0.000
  -0.00000005  0.85555559 -0.43333335       0.000
   0.00000003  0.85416665 -0.43749997       0.000
   0.00000000  0.85277778 -0.44166666       0.000
   0.00000006  0.85138888 -0.44583326       0.000
   0.00000002  0.85000000 -0.44999996       0.000
   0.00000001  0.84861111 -0.45416665       0.000
  -0.00000002  0.84722222 -0.45833336       0.000
  -0.00000006  0.84583336 -0.46250004       0.000
   0.00000001  0.84444445 -0.46666665       0.000
  -0.00000001  0.84305555 -0.47083335       0.000
   0.00000005  0.84166665 -0.47499995       0.000
   0.00000002  0.84027778 -0.47916664       0.000
  -0.00000002  0.83888890 -0.48333334       0.000
  -0.00000002  0.83750000 -0.48750004       0.000
   0.00000003  0.83611109 -0.49166665       0.000
  -0.00000002  0.83472224 -0.49583332       0.000
   0.00000006  0.83333332 -0.49999994       0.000
   0.00000003  0.83194443 -0.50416663       0.000
   0.00000000  0.83055556 -0.50833332       0.000
  -0.00000003  0.82916669 -0.51250001       0.000
   0.00000003  0.82777777 -0.51666663       0.000
   0.00000001  0.82638889 -0.52083331       0.000
  -0.00000003  0.82500001 -0.52500001       0.000
   0.00000006  0.82361108 -0.52916664       0.000
   0.00000000  0.82222224 -0.53333330       0.000
  -0.00000003  0.82083335 -0.53749999       0.000
  -0.00000006  0.81944448 -0.54166668       0.000
   0.00000003  0.81805555 -0.54583331       0.000
   0.00000000  0.81666666 -0.55000002       0.000
  -0.00000002  0.81527778 -0.55416670       0.000
   0.00000003  0.81388887 -0.55833331       0.000
  -0.00000003  0.81250003 -0.56249997       0.000
  -0.00000003  0.81111113 -0.56666669       0.000
   0.00000002  0.80972222 -0.57083330       0.000
   0.00000000  0.80833334 -0.57499998       0.000
   0.00000006  0.80694442 -0.57916660       0.000
   0.00000003  0.80555555 -0.58333329       0.000
   0.00000003  0.80416665 -0.58750001       0.000
  -0.00000003  0.80277779 -0.59166667       0.000
  -0.00000006  0.80138892 -0.59583336       0.000
   0.00000000  0.80000002 -0.59999996       0.000
  -0.00000004  0.79861114 -0.60416666       0.000
   0.00000006  0.79722220 -0.60833328       0.000
   0.00000003  0.79583331 -0.61249999       0.000
   0.00000000  0.79444444 -0.61666668       0.000
  -0.00000006  0.79305560 -0.62083334       0.000
  -0.00000009  0.79166671 -0.62500003       0.000
   0.00000000  0.79027778 -0.62916666       0.000
   0.00000006  0.78888888 -0.63333326       0.000
   0.00000002  0.78750000 -0.63749996       0.000
   0.00000001  0.78611111 -0.64166665       0.000
  -0.00000003  0.78472223 -0.64583335       0.000
   0.00000006  0.78333330 -0.64999998       0.000
   0.00000000  0.78194446 -0.65416664       0.000
  -0.00000003  0.78055557 -0.65833333       0.000
   0.00000003  0.77916667 -0.66249993       0.000
   0.00000000  0.77777780 -0.66666662       0.000
  -0.00000001  0.77638889 -0.67083335       0.000
  -0.00000002  0.77500000 -0.67500004       0.000
   0.00000003  0.77361109 -0.67916665       0.000
  -0.00000003  0.77222225 -0.68333331       0.000
  -0.00000003  0.77083335 -0.68750003       0.000
   0.00000003  0.76944443 -0.69166663       0.000
  -0.00000000  0.76805556 -0.69583332       0.000
  -0.00000003  0.76666669 -0.70000001       0.000
   0.00000003  0.76527777 -0.70416663       0.000
   0.00000004  0.76388886 -0.70833334       0.000
  -0.00000003  0.76250001 -0.71250001       0.000
   0.00000003  0.76111111 -0.71666661       0.000
   0.00000000  0.75972224 -0.72083330       0.000
  -0.00000003  0.75833335 -0.72499999       0.000
  -0.00000003  0.75694445 -0.72916671       0.000
   0.00000003  0.75555555 -0.73333331       0.000
   0.00000000  0.75416666 -0.73750002       0.000
   0.00000006  0.75277776 -0.74166662       0.000
  -0.00000000  0.75138890 -0.74583328       0.000
   0.00000000  0.75000000 -0.75000000       0.000
   0.00000001  0.74788135 -0.74788135       0.000
  -0.00000001  0.74576271 -0.74576271       0.000
   0.00000000  0.74364406 -0.74364406       0.000
   0.00000001  0.74152541 -0.74152541       0.000
   0.00000000  0.73940676 -0.73940676       0.000
   0.00000000  0.73728812 -0.73728812       0.000
   0.00000001  0.73516947 -0.73516947       0.000
   0.00000000  0.73305082 -0.73305082       0.000
   0.00000000  0.73093218 -0.73093218       0.000
  -0.00000001  0.72881353 -0.72881353       0.000
   0.00000000  0.72669494 -0.72669494       0.000
   0.00000001  0.72457629 -0.72457629       0.000
  -0.00000001  0.72245765 -0.72245765       0.000
   0.00000000  0.72033900 -0.72033900       0.000
   0.00000001  0.71822035 -0.71822035       0.000
  -0.00000001  0.71610171 -0.71610171       0.000
   0.00000000  0.71398306 -0.71398306       0.000
   0.00000001  0.71186441 -0.71186441       0.000
   0.00000000  0.70974576 -0.70974576       0.000
   0.00000000  0.70762712 -0.70762712       0.000
   0.00000001  0.70550847 -0.70550847       0.000
   0.00000000  0.70338982 -0.70338982       0.000
   0.00000000  0.70127118 -0.70127118       0.000
  -0.00000001  0.69915253 -0.69915253       0.000
   0.00000000  0.69703388 -0.69703388       0.000
   0.00000000  0.69491524 -0.69491524       0.000
  -0.00000001  0.69279659 -0.69279659       0.000
   0.00000000  0.69067794 -0.69067794       0.000
   0.00000001  0.68855929 -0.68855929       0.000
  -0.00000001  0.68644071 -0.68644071       0.000
   0.00000000  0.68432206 -0.68432206       0.000
   0.00000001  0.68220341 -0.68220341       0.000
   0.00000000  0.68008476 -0.68008476       0.000
   0.00000000  0.67796612 -0.67796612       0.000
   0.00000001  0.67584747 -0.67584747       0.000
   0.00000000  0.67372882 -0.67372882       0.000
   0.00000000  0.67161018 -0.67161018       0.000
  -0.00000001  0.66949153 -0.66949153       0.000
   0.00000000  0.66737288 -0.66737288       0.000
   0.00000000  0.66525424 -0.66525424       0.000
  -0.00000001  0.66313559 -0.66313559       0.000
   0.00000000  0.66101694 -0.66101694       0.000
   0.00000001  0.65889829 -0.65889829       0.000
  -0.00000001  0.65677965 -0.65677965       0.000
   0.00000000  0.65466100 -0.65466100       0.000
   0.00000001  0.65254235 -0.65254235       0.000
  -0.00000001  0.65042371 -0.65042371       0.000
   0.00000000  0.64830506 -0.64830506       0.000
   0.00000001  0.64618647 -0.64618647       0.000
   0.00000000  0.64406782 -0.64406782       0.000
   0.00000000  0.64194918 -0.64194918       0.000
  -0.00000001  0.63983053 -0.63983053       0.000
   0.00000000  0.63771188 -0.63771188       0.000
   0.00000000  0.63559324 -0.63559324       0.000
  -0.00000001  0.63347459 -0.63347459       0.000
   0.00000000  0.63135594 -0.63135594       0.000
   0.00000001  0.62923729 -0.62923729       0.000
  -0.00000001  0.62711865 -0.62711865       0.000
   0.00000000  0.62500000 -0.62500000       0.000
   0.00000001  0.62288135 -0.62288135       0.000
  -0.00000001  0.62076271 -0.62076271       0.000
   0.00000000  0.61864406 -0.61864406       0.000
   0.00000001  0.61652541 -0.61652541       0.000
   0.00000000  0.61440676 -0.61440676       0.000
   0.00000000  0.61228812 -0.61228812       0.000
   0.00000001  0.61016947 -0.61016947       0.000
   0.00000000  0.60805082 -0.60805082       0.000
   0.00000000  0.60593224 -0.60593224       0.000
  -0.00000001  0.60381353 -0.60381353       0.000
   0.00000000  0.60169494 -0.60169494       0.000
   0.00000001  0.59957629 -0.59957629       0.000
  -0.00000001  0.59745765 -0.59745765       0.000
   0.00000000  0.59533900 -0.59533900       0.000
   0.00000001  0.59322035 -0.59322035       0.000
  -0.00000001  0.59110171 -0.59110171       0.000
   0.00000000  0.58898306 -0.58898306       0.000
   0.00000001  0.58686441 -0.58686441       0.000
   0.00000000  0.58474576 -0.58474576       0.000
   0.00000000  0.58262712 -0.58262712       0.000
   0.00000001  0.58050847 -0.58050847       0.000
   0.00000000  0.57838982 -0.57838982       0.000
   0.00000000  0.57627118 -0.57627118       0.000
  -0.00000001  0.57415253 -0.57415253       0.000
   0.00000000  0.57203388 -0.57203388       0.000
   0.00000000  0.56991524 -0.56991524       0.000
  -0.00000001  0.56779659 -0.56779659       0.000
   0.00000000  0.56567800 -0.56567800       0.000
   0.00000001  0.56355929 -0.56355929       0.000
  -0.00000001  0.56144071 -0.56144071       0.000
   0.00000000  0.55932200 -0.55932200       0.000
   0.00000001  0.55720341 -0.55720341       0.000
  -0.00000001  0.55508471 -0.55508471       0.000
   0.00000000  0.55296612 -0.55296612       0.000
   0.00000001  0.55084741 -0.55084741       0.000
   0.00000000  0.54872882 -0.54872882       0.000
   0.00000000  0.54661018 -0.54661018       0.000
  -0.00000001  0.54449153 -0.54449153       0.000
   0.00000000  0.54237288 -0.54237288       0.000
   0.00000000  0.54025424 -0.54025424       0.000
  -0.00000001  0.53813559 -0.53813559       0.000
   0.00000000  0.53601694 -0.53601694       0.000
   0.00000001  0.53389829 -0.53389829       0.000
  -0.00000001  0.53177965 -0.53177965       0.000
   0.00000000  0.52966100 -0.52966100       0.000
   0.00000001  0.52754235 -0.52754235       0.000
  -0.00000001  0.52542377 -0.52542377       0.000
   0.00000000  0.52330506 -0.52330506       0.000
   0.00000001  0.52118647 -0.52118647       0.000
   0.00000000  0.51906776 -0.51906776       0.000
   0.00000000  0.51694918 -0.51694918       0.000
   0.00000001  0.51483047 -0.51483047       0.000
   0.00000000  0.51271188 -0.51271188       0.000
   0.00000000  0.51059324 -0.51059324       0.000
  -0.00000001  0.50847459 -0.50847459       0.000
   0.00000000  0.50635594 -0.50635594       0.000
   0.00000001  0.50423729 -0.50423729       0.000
  -0.00000001  0.50211865 -0.50211865       0.000
   0.00000000  0.50000000 -0.50000000       0.000
   0.00000001  0.49788135 -0.49788135       0.000
  -0.00000001  0.49576271 -0.49576271       0.000
   0.00000000  0.49364406 -0.49364406       0.000
   0.00000001  0.49152541 -0.49152541       0.000
   0.00000000  0.48940676 -0.48940676       0.000
  -0.00000001  0.48728815 -0.48728815       0.000
   0.00000001  0.48516947 -0.48516947       0.000
   0.00000001  0.48305085 -0.48305085       0.000
  -0.00000001  0.48093221 -0.48093221       0.000
   0.00000000  0.47881356 -0.47881356       0.000
   0.00000001  0.47669491 -0.47669491       0.000
   0.00000001  0.47457629 -0.47457629       0.000
   0.00000000  0.47245762 -0.47245762       0.000
   0.00000001  0.47033897 -0.47033897       0.000
   0.00000001  0.46822035 -0.46822035       0.000
  -0.00000001  0.46610171 -0.46610171       0.000
  -0.00000001  0.46398303 -0.46398303       0.000
   0.00000001  0.46186441 -0.46186441       0.000
   0.00000000  0.45974576 -0.45974576       0.000
   0.00000000  0.45762712 -0.45762712       0.000
   0.00000001  0.45550847 -0.45550847       0.000
   0.00000000  0.45338982 -0.45338982       0.000
   0.00000000  0.45127118 -0.45127118       0.000
   0.00000000  0.44915256 -0.44915256       0.000
   0.00000000  0.44703388 -0.44703388       0.000
   0.00000000  0.44491524 -0.44491524       0.000
   0.00000000  0.44279662 -0.44279662       0.000
   0.00000001  0.44067797 -0.44067797       0.000
   0.00000001  0.43855929 -0.43855929       0.000
   0.00000000  0.43644068 -0.43644068       0.000
  -0.00000001  0.43432203 -0.43432203       0.000
   0.00000001  0.43220341 -0.43220341       0.000
   0.00000000  0.43008474 -0.43008474       0.000
  -0.00000001  0.42796609 -0.42796609       0.000
   0.00000001  0.42584747 -0.42584747       0.000
   0.00000000  0.42372882 -0.42372882       0.000
  -0.00000001  0.42161015 -0.42161015       0.000
  -0.00000001  0.41949153 -0.41949153       0.000
   0.00000000  0.41737288 -0.41737288       0.000
   0.00000000  0.41525424 -0.41525424       0.000
  -0.00000001  0.41313559 -0.41313559       0.000
   0.00000000  0.41101694 -0.41101694       0.000
   0.00000001  0.40889829 -0.40889829       0.000
   0.00000000  0.40677968 -0.40677968       0.000
  -0.00000001  0.40466103 -0.40466103       0.000
   0.00000001  0.40254235 -0.40254235       0.000
   0.00000000  0.40042374 -0.40042374       0.000
  -0.00000001  0.39830509 -0.39830509       0.000
   0.00000000  0.39618644 -0.39618644       0.000
   0.00000001  0.39406779 -0.39406779       0.000
  -0.00000001  0.39194915 -0.39194915       0.000
   0.00000000  0.38983050 -0.38983050       0.000
   0.00000000  0.38771188 -0.38771188       0.000
  -0.00000001  0.38559321 -0.38559321       0.000
   0.00000000  0.38347456 -0.38347456       0.000
   0.00000000  0.38135594 -0.38135594       0.000
   0.00000001  0.37923729 -0.37923729       0.000
   0.00000000  0.37711862 -0.37711862       0.000
   0.00000000  0.37500000 -0.37500000       0.000
   0.00000001  0.37288135 -0.37288135       0.000
  -0.00000001  0.37076271 -0.37076271       0.000
   0.00000000  0.36864406 -0.36864406       0.000
   0.00000001  0.36652541 -0.36652541       0.000
   0.00000000  0.36440676 -0.36440676       0.000
  -0.00000001  0.36228815 -0.36228815       0.000
   0.00000001  0.36016947 -0.36016947       0.000
   0.00000000  0.35805082 -0.35805082       0.000
  -0.00000001  0.35593221 -0.35593221       0.000
   0.00000000  0.35381356 -0.35381356       0.000
   0.00000000  0.35169488 -0.35169488       0.000
   0.00000000  0.34957626 -0.34957626       0.000
   0.00000000  0.34745762 -0.34745762       0.000
   0.00000000  0.34533900 -0.34533900       0.000
   0.00000001  0.34322035 -0.34322035       0.000
   0.00000000  0.34110168 -0.34110168       0.000
   0.00000000  0.33898306 -0.33898306       0.000
   0.00000001  0.33686441 -0.33686441       0.000
   0.00000000  0.33474576 -0.33474576       0.000
   0.00000000  0.33262712 -0.33262712       0.000
   0.00000001  0.33050847 -0.33050847       0.000
   0.00000000  0.32838982 -0.32838982       0.000
  -0.00000001  0.32627121 -0.32627121       0.000
  -0.00000001  0.32415253 -0.32415253       0.000
   0.00000000  0.32203388 -0.32203388       0.000
   0.00000000  0.31991526 -0.31991526       0.000
   0.00000000  0.31779662 -0.31779662       0.000
   0.00000000  0.31567794 -0.31567794       0.000
   0.00000000  0.31355932 -0.31355932       0.000
   0.00000000  0.31144068 -0.31144068       0.000
  -0.00000001  0.30932203 -0.30932203       0.000
   0.00000000  0.30720338 -0.30720338       0.000
   0.00000000  0.30508474 -0.30508474       0.000
  -0.00000001  0.30296609 -0.30296609       0.000
   0.00000001  0.30084747 -0.30084747       0.000
   0.00000001  0.29872879 -0.29872879       0.000
  -0.00000001  0.29661015 -0.29661015       0.000
  -0.00000001  0.29449153 -0.29449153       0.000
   0.00000000  0.29237288 -0.29237288       0.000
  -0.00000001  0.29025421 -0.29025421       0.000
  -0.00000001  0.28813559 -0.28813559       0.000
   0.00000000  0.28601694 -0.28601694       0.000
   0.00000000  0.28389832 -0.28389832       0.000
  -0.00000001  0.28177965 -0.28177965       0.000
   0.00000000  0.27966100 -0.27966100       0.000
   0.00000000  0.27754238 -0.27754238       0.000
   0.00000000  0.27542374 -0.27542374       0.000
  -0.00000001  0.27330509 -0.27330509       0.000
   0.00000000  0.27118644 -0.27118644       0.000
   0.00000001  0.26906779 -0.26906779       0.000
  -0.00000001  0.26694915 -0.26694915       0.000
  -0.00000001  0.26483053 -0.26483053       0.000
   0.00000001  0.26271185 -0.26271185       0.000
  -0.00000001  0.26059321 -0.26059321       0.000
  -0.00000001  0.25847459 -0.25847459       0.000
   0.00000000  0.25635594 -0.25635594       0.000
   0.00000000  0.25423726 -0.25423726       0.000
  -0.00000001  0.25211865 -0.25211865       0.000
   0.00000000  0.25000000 -0.25000000       0.000
   0.00000001  0.24788135 -0.24788135       0.000
  -0.00000001  0.24576271 -0.24576271       0.000
   0.00000000  0.24364406 -0.24364406       0.000
   0.00000001  0.24152541 -0.24152541       0.000
   0.00000000  0.23940676 -0.23940676       0.000
   0.00000000  0.23728812 -0.23728812       0.000
   0.00000001  0.23516947 -0.23516947       0.000
   0.00000000  0.23305082 -0.23305082       0.000
   0.00000000  0.23093224 -0.23093224       0.000
  -0.00000001  0.22881353 -0.22881353       0.000
   0.00000000  0.22669488 -0.22669488       0.000
   0.00000001  0.22457629 -0.22457629       0.000
  -0.00000001  0.22245765 -0.22245765       0.000
   0.00000000  0.22033894 -0.22033894       0.000
   0.00000001  0.21822035 -0.21822035       0.000
  -0.00000001  0.21610171 -0.21610171       0.000
   0.00000000  0.21398306 -0.21398306       0.000
   0.00000001  0.21186441 -0.21186441       0.000
   0.00000000  0.20974576 -0.20974576       0.000
   0.00000000  0.20762712 -0.20762712       0.000
   0.00000001  0.20550847 -0.20550847       0.000
   0.00000000  0.20338982 -0.20338982       0.000
   0.00000000  0.20127118 -0.20127118       0.000
  -0.00000001  0.19915259 -0.19915259       0.000
   0.00000000  0.19703388 -0.19703388       0.000
   0.00000000  0.19491524 -0.19491524       0.000
  -0.00000001  0.19279659 -0.19279659       0.000
   0.00000000  0.19067794 -0.19067794       0.000
   0.00000001  0.18855929 -0.18855929       0.000
  -0.00000001  0.18644071 -0.18644071       0.000
   0.00000000  0.18432206 -0.18432206       0.000
   0.00000001  0.18220341 -0.18220341       0.000
  -0.00000001  0.18008471 -0.18008471       0.000
   0.00000000  0.17796606 -0.17796606       0.000
   0.00000001  0.17584741 -0.17584741       0.000
   0.00000000  0.17372882 -0.17372882       0.000
   0.00000000  0.17161018 -0.17161018       0.000
  -0.00000001  0.16949153 -0.16949153       0.000
   0.00000000  0.16737288 -0.16737288       0.000
   0.00000000  0.16525424 -0.16525424       0.000
  -0.00000001  0.16313553 -0.16313553       0.000
   0.00000000  0.16101694 -0.16101694       0.000
   0.00000001  0.15889829 -0.15889829       0.000
  -0.00000001  0.15677965 -0.15677965       0.000
   0.00000000  0.15466100 -0.15466100       0.000
   0.00000001  0.15254235 -0.15254235       0.000
  -0.00000001  0.15042377 -0.15042377       0.000
   0.00000000  0.14830512 -0.14830512       0.000
   0.00000001  0.14618641 -0.14618641       0.000
   0.00000000  0.14406776 -0.14406776       0.000
   0.00000000  0.14194912 -0.14194912       0.000
   0.00000001  0.13983047 -0.13983047       0.000
   0.00000000  0.13771188 -0.13771188       0.000
   0.00000000  0.13559324 -0.13559324       0.000
  -0.00000001  0.13347459 -0.13347459       0.000
   0.00000000  0.13135594 -0.13135594       0.000
   0.00000001  0.12923729 -0.12923729       0.000
  -0.00000001  0.12711859 -0.12711859       0.000
   0.00000000  0.12500000 -0.12500000       0.000
   0.00000001  0.12288135 -0.12288135       0.000
  -0.00000001  0.12076271 -0.12076271       0.000
   0.00000000  0.11864406 -0.11864406       0.000
   0.00000001  0.11652541 -0.11652541       0.000
   0.00000000  0.11440682 -0.11440682       0.000
   0.00000000  0.11228818 -0.11228818       0.000
   0.00000001  0.11016947 -0.11016947       0.000
   0.00000000  0.10805082 -0.10805082       0.000
   0.00000000  0.10593218 -0.10593218       0.000
  -0.00000001  0.10381353 -0.10381353       0.000
   0.00000000  0.10169494 -0.10169494       0.000
   0.00000001  0.09957629 -0.09957629       0.000
  -0.00000001  0.09745765 -0.09745765       0.000
   0.00000000  0.09533900 -0.09533900       0.000
   0.00000001  0.09322029 -0.09322029       0.000
  -0.00000001  0.09110165 -0.09110165       0.000
   0.00000000  0.08898306 -0.08898306       0.000
   0.00000001  0.08686441 -0.08686441       0.000
   0.00000000  0.08474576 -0.08474576       0.000
   0.00000000  0.08262712 -0.08262712       0.000
   0.00000001  0.08050847 -0.08050847       0.000
   0.00000000  0.07838982 -0.07838982       0.000
   0.00000000  0.07627118 -0.07627118       0.000
  -0.00000001  0.07415253 -0.07415253       0.000
   0.00000000  0.07203388 -0.07203388       0.000
   0.00000000  0.06991524 -0.06991524       0.000
  -0.00000001  0.06779659 -0.06779659       0.000
   0.00000000  0.06567794 -0.06567794       0.000
   0.00000001  0.06355935 -0.06355935       0.000
  -0.00000001  0.06144071 -0.06144071       0.000
   0.00000000  0.05932206 -0.05932206       0.000
   0.00000001  0.05720335 -0.05720335       0.000
  -0.00000001  0.05508471 -0.05508471       0.000
   0.00000000  0.05296606 -0.05296606       0.000
   0.00000001  0.05084747 -0.05084747       0.000
   0.00000000  0.04872882 -0.04872882       0.000
   0.00000000  0.04661018 -0.04661018       0.000
  -0.00000001  0.04449153 -0.04449153       0.000
   0.00000000  0.04237288 -0.04237288       0.000
   0.00000000  0.04025418 -0.04025418       0.000
  -0.00000001  0.03813559 -0.03813559       0.000
   0.00000000  0.03601694 -0.03601694       0.000
   0.00000001  0.03389829 -0.03389829       0.000
  -0.00000001  0.03177965 -0.03177965       0.000
   0.00000000  0.02966100 -0.02966100       0.000
   0.00000001  0.02754241 -0.02754241       0.000
  -0.00000001  0.02542377 -0.02542377       0.000
   0.00000000  0.02330506 -0.02330506       0.000
   0.00000001  0.02118641 -0.02118641       0.000
   0.00000000  0.01906776 -0.01906776       0.000
   0.00000000  0.01694912 -0.01694912       0.000
  -0.00000001  0.01483053 -0.01483053       0.000
   0.00000000  0.01271188 -0.01271188       0.000
   0.00000000  0.01059324 -0.01059324       0.000
  -0.00000001  0.00847459 -0.00847459       0.000
   0.00000000  0.00635588 -0.00635588       0.000
   0.00000001  0.00423723 -0.00423723       0.000
  -0.00000001  0.00211865 -0.00211865       0.000
   0.00000000  0.00000000  0.00000000       0.000
   0.00149701  0.00149701 -0.00149701       0.000
   0.00299401  0.00299401 -0.00299401       0.000
   0.00449102  0.00449102 -0.00449102       0.000
   0.00598802  0.00598802 -0.00598802       0.000
   0.00748503  0.00748503 -0.00748503       0.000
   0.00898204  0.00898204 -0.00898204       0.000
   0.01047904  0.01047904 -0.01047904       0.000
   0.01197605  0.01197605 -0.01197605       0.000
   0.01347305  0.01347305 -0.01347305       0.000
   0.01497006  0.01497006 -0.01497006       0.000
   0.01646706  0.01646706 -0.01646706       0.000
   0.01796407  0.01796407 -0.01796407       0.000
   0.01946108  0.01946108 -0.01946108       0.000
   0.02095808  0.02095808 -0.02095808       0.000
   0.02245509  0.02245509 -0.02245509       0.000
   0.02395209  0.02395209 -0.02395209       0.000
   0.02544910  0.02544910 -0.02544910       0.000
   0.02694611  0.02694611 -0.02694611       0.000
   0.02844311  0.02844311 -0.02844311       0.000
   0.02994012  0.02994012 -0.02994012       0.000
   0.03143713  0.03143713 -0.03143713       0.000
   0.03293413  0.03293413 -0.03293413       0.000
   0.03443114  0.03443114 -0.03443114       0.000
   0.03592814  0.03592814 -0.03592814       0.000
   0.03742515  0.03742515 -0.03742515       0.000
   0.03892215  0.03892215 -0.03892215       0.000
   0.04041916  0.04041916 -0.04041916       0.000
   0.04191617  0.04191617 -0.04191617       0.000
   0.04341317  0.04341317 -0.04341317       0.000
   0.04491018  0.04491018 -0.04491018       0.000
   0.04640718  0.04640718 -0.04640718       0.000
   0.04790419  0.04790419 -0.04790419       0.000
   0.04940120  0.04940120 -0.04940120       0.000
   0.05089820  0.05089820 -0.05089820       0.000
   0.05239521  0.05239521 -0.05239521       0.000
   0.05389221  0.05389221 -0.05389221       0.000
   0.05538922  0.05538922 -0.05538922       0.000
   0.05688623  0.05688623 -0.05688623       0.000
   0.05838323  0.05838323 -0.05838323       0.000
   0.05988024  0.05988024 -0.05988024       0.000
   0.06137725  0.06137725 -0.06137725       0.000
   0.06287425  0.06287425 -0.06287425       0.000
   0.06437125  0.06437125 -0.06437125       0.000
   0.06586826  0.06586826 -0.06586826       0.000
   0.06736527  0.06736527 -0.06736527       0.000
   0.06886227  0.06886227 -0.06886227       0.000
   0.07035928  0.07035928 -0.07035928       0.000
   0.07185628  0.07185628 -0.07185628       0.000
   0.07335329  0.07335329 -0.07335329       0.000
   0.07485030  0.07485030 -0.07485030       0.000
   0.07634730  0.07634730 -0.07634730       0.000
   0.07784431  0.07784431 -0.07784431       0.000
   0.07934131  0.07934131 -0.07934131       0.000
   0.08083832  0.08083832 -0.08083832       0.000
   0.08233533  0.08233533 -0.08233533       0.000
   0.08383234  0.08383234 -0.08383234       0.000
   0.08532934  0.08532934 -0.08532934       0.000
   0.08682634  0.08682634 -0.08682634       0.000
   0.08832335  0.08832335 -0.08832335       0.000
   0.08982036  0.08982036 -0.08982036       0.000
   0.09131736  0.09131736 -0.09131736       0.000
   0.09281436  0.09281436 -0.09281436       0.000
   0.09431137  0.09431137 -0.09431137       0.000
   0.09580838  0.09580838 -0.09580838       0.000
   0.09730539  0.09730539 -0.09730539       0.000
   0.09880240  0.09880240 -0.09880240       0.000
   0.10029940  0.10029940 -0.10029940       0.000
   0.10179640  0.10179640 -0.10179640       0.000
   0.10329341  0.10329341 -0.10329341       0.000
   0.10479042  0.10479042 -0.10479042       0.000
   0.10628742  0.10628742 -0.10628742       0.000
   0.10778443  0.10778443 -0.10778443       0.000
   0.10928143  0.10928143 -0.10928143       0.000
   0.11077844  0.11077844 -0.11077844       0.000
   0.11227544  0.11227544 -0.11227544       0.000
   0.11377245  0.11377245 -0.11377245       0.000
   0.11526946  0.11526946 -0.11526946       0.000
   0.11676646  0.11676646 -0.11676646       0.000
   0.11826347  0.11826347 -0.11826347       0.000
   0.11976048  0.11976048 -0.11976048       0.000
   0.12125748  0.12125748 -0.12125748       0.000
   0.12275449  0.12275449 -0.12275449       0.000
   0.12425150  0.12425150 -0.12425150       0.000
   0.12574850  0.12574850 -0.12574850       0.000
   0.12724550  0.12724550 -0.12724550       0.000
   0.12874250  0.12874250 -0.12874250       0.000
   0.13023952  0.13023952 -0.13023952       0.000
   0.13173652  0.13173652 -0.13173652       0.000
   0.13323353  0.13323353 -0.13323353       0.000
   0.13473053  0.13473053 -0.13473053       0.000
   0.13622755  0.13622755 -0.13622755       0.000
   0.13772455  0.13772455 -0.13772455       0.000
   0.13922155  0.13922155 -0.13922155       0.000
   0.14071856  0.14071856 -0.14071856       0.000
   0.14221556  0.14221556 -0.14221556       0.000
   0.14371257  0.14371257 -0.14371257       0.000
   0.14520957  0.14520957 -0.14520957       0.000
   0.14670658  0.14670658 -0.14670658       0.000
   0.14820358  0.14820358 -0.14820358       0.000
   0.14970060  0.14970060 -0.14970060       0.000
   0.15119760  0.15119760 -0.15119760       0.000
   0.15269460  0.15269460 -0.15269460       0.000
   0.15419161  0.15419161 -0.15419161       0.000
   0.15568861  0.15568861 -0.15568861       0.000
   0.15718563  0.15718563 -0.15718563       0.000
   0.15868263  0.15868263 -0.15868263       0.000
   0.16017964  0.16017964 -0.16017964       0.000
   0.16167665  0.16167665 -0.16167665       0.000
   0.16317365  0.16317365 -0.16317365       0.000
   0.16467066  0.16467066 -0.16467066       0.000
   0.16616766  0.16616766 -0.16616766       0.000
   0.16766468  0.16766468 -0.16766468       0.000
   0.16916168  0.16916168 -0.16916168       0.000
   0.17065868  0.17065868 -0.17065868       0.000
   0.17215569  0.17215569 -0.17215569       0.000
   0.17365268  0.17365268 -0.17365268       0.000
   0.17514969  0.17514969 -0.17514969       0.000
   0.17664669  0.17664669 -0.17664669       0.000
   0.17814369  0.17814369 -0.17814369       0.000
   0.17964071  0.17964071 -0.17964071       0.000
   0.18113771  0.18113771 -0.18113771       0.000
   0.18263473  0.18263473 -0.18263473       0.000
   0.18413173  0.18413173 -0.18413173       0.000
   0.18562873  0.18562873 -0.18562873       0.000
   0.18712574  0.18712574 -0.18712574       0.000
   0.18862274  0.18862274 -0.18862274       0.000
   0.19011976  0.19011976 -0.19011976       0.000
   0.19161676  0.19161676 -0.19161676       0.000
   0.19311376  0.19311376 -0.19311376       0.000
   0.19461077  0.19461077 -0.19461077       0.000
   0.19610777  0.19610777 -0.19610777       0.000
   0.19760479  0.19760479 -0.19760479       0.000
   0.19910179  0.19910179 -0.19910179       0.000
   0.20059881  0.20059881 -0.20059881       0.000
   0.20209581  0.20209581 -0.20209581       0.000
   0.20359281  0.20359281 -0.20359281       0.000
   0.20508982  0.20508982 -0.20508982       0.000
   0.20658682  0.20658682 -0.20658682       0.000
   0.20808384  0.20808384 -0.20808384       0.000
   0.20958084  0.20958084 -0.20958084       0.000
   0.21107782  0.21107782 -0.21107782       0.000
   0.21257484  0.21257484 -0.21257484       0.000
   0.21407184  0.21407184 -0.21407184       0.000
   0.21556886  0.21556886 -0.21556886       0.000
   0.21706586  0.21706586 -0.21706586       0.000
   0.21856286  0.21856286 -0.21856286       0.000
   0.22005987  0.22005987 -0.22005987       0.000
   0.22155687  0.22155687 -0.22155687       0.000
   0.22305389  0.22305389 -0.22305389       0.000
   0.22455089  0.22455089 -0.22455089       0.000
   0.22604789  0.22604789 -0.22604789       0.000
   0.22754490  0.22754490 -0.22754490       0.000
   0.22904190  0.22904190 -0.22904190       0.000
   0.23053892  0.23053892 -0.23053892       0.000
   0.23203592  0.23203592 -0.23203592       0.000
   0.23353292  0.23353292 -0.23353292       0.000
   0.23502994  0.23502994 -0.23502994       0.000
   0.23652694  0.23652694 -0.23652694       0.000
   0.23802395  0.23802395 -0.23802395       0.000
   0.23952095  0.23952095 -0.23952095       0.000
   0.24101797  0.24101797 -0.24101797       0.000
   0.24251497  0.24251497 -0.24251497       0.000
   0.24401197  0.24401197 -0.24401197       0.000
   0.24550898  0.24550898 -0.24550898       0.000
   0.24700598  0.24700598 -0.24700598       0.000
   0.24850300  0.24850300 -0.24850300       0.000
   0.24999999  0.24999999 -0.24999999       0.000
   0.25149700  0.25149700 -0.25149700       0.000
   0.25299400  0.25299400 -0.25299400       0.000
   0.25449100  0.25449100 -0.25449100       0.000
   0.25598800  0.25598800 -0.25598800       0.000
   0.25748500  0.25748500 -0.25748500       0.000
   0.25898203  0.25898203 -0.25898203       0.000
   0.26047903  0.26047903 -0.26047903       0.000
   0.26197603  0.26197603 -0.26197603       0.000
   0.26347303  0.26347303 -0.26347303       0.000
   0.26497003  0.26497003 -0.26497003       0.000
   0.26646706  0.26646706 -0.26646706       0.000
   0.26796407  0.26796407 -0.26796407       0.000
   0.26946107  0.26946107 -0.26946107       0.000
   0.27095807  0.27095807 -0.27095807       0.000
   0.27245510  0.27245510 -0.27245510       0.000
   0.27395210  0.27395210 -0.27395210       0.000
   0.27544910  0.27544910 -0.27544910       0.000
   0.27694610  0.27694610 -0.27694610       0.000
   0.27844310  0.27844310 -0.27844310       0.000
   0.27994013  0.27994013 -0.27994013       0.000
   0.28143713  0.28143713 -0.28143713       0.000
   0.28293413  0.28293413 -0.28293413       0.000
   0.28443113  0.28443113 -0.28443113       0.000
   0.28592813  0.28592813 -0.28592813       0.000
   0.28742513  0.28742513 -0.28742513       0.000
   0.28892216  0.28892216 -0.28892216       0.000
   0.29041913  0.29041913 -0.29041913       0.000
   0.29191616  0.29191616 -0.29191616       0.000
   0.29341316  0.29341316 -0.29341316       0.000
   0.29491019  0.29491019 -0.29491019       0.000
   0.29640716  0.29640716 -0.29640716       0.000
   0.29790419  0.29790419 -0.29790419       0.000
   0.29940119  0.29940119 -0.29940119       0.000
   0.30089819  0.30089819 -0.30089819       0.000
   0.30239519  0.30239519 -0.30239519       0.000
   0.30389223  0.30389223 -0.30389223       0.000
   0.30538920  0.30538920 -0.30538920       0.000
   0.30688620  0.30688620 -0.30688620       0.000
   0.30838323  0.30838323 -0.30838323       0.000
   0.30988023  0.30988023 -0.30988023       0.000
   0.31137723  0.31137723 -0.31137723       0.000
   0.31287423  0.31287423 -0.31287423       0.000
   0.31437126  0.31437126 -0.31437126       0.000
   0.31586823  0.31586823 -0.31586823       0.000
   0.31736526  0.31736526 -0.31736526       0.000
   0.31886226  0.31886226 -0.31886226       0.000
   0.32035929  0.32035929 -0.32035929       0.000
   0.32185626  0.32185626 -0.32185626       0.000
   0.32335329  0.32335329 -0.32335329       0.000
   0.32485029  0.32485029 -0.32485029       0.000
   0.32634729  0.32634729 -0.32634729       0.000
   0.32784429  0.32784429 -0.32784429       0.000
   0.32934132  0.32934132 -0.32934132       0.000
   0.33083829  0.33083829 -0.33083829       0.000
   0.33233532  0.33233532 -0.33233532       0.000
   0.33383232  0.33383232 -0.33383232       0.000
   0.33532935  0.33532935 -0.33532935       0.000
   0.33682632  0.33682632 -0.33682632       0.000
   0.33832335  0.33832335 -0.33832335       0.000
   0.33982036  0.33982036 -0.33982036       0.000
   0.34131736  0.34131736 -0.34131736       0.000
   0.34281436  0.34281436 -0.34281436       0.000
   0.34431139  0.34431139 -0.34431139       0.000
   0.34580836  0.34580836 -0.34580836       0.000
   0.34730536  0.34730536 -0.34730536       0.000
   0.34880239  0.34880239 -0.34880239       0.000
   0.35029939  0.35029939 -0.35029939       0.000
   0.35179639  0.35179639 -0.35179639       0.000
   0.35329339  0.35329339 -0.35329339       0.000
   0.35479042  0.35479042 -0.35479042       0.000
   0.35628739  0.35628739 -0.35628739       0.000
   0.35778442  0.35778442 -0.35778442       0.000
   0.35928142  0.35928142 -0.35928142       0.000
   0.36077845  0.36077845 -0.36077845       0.000
   0.36227542  0.36227542 -0.36227542       0.000
   0.36377245  0.36377245 -0.36377245       0.000
   0.36526945  0.36526945 -0.36526945       0.000
   0.36676645  0.36676645 -0.36676645       0.000
   0.36826345  0.36826345 -0.36826345       0.000
   0.36976048  0.36976048 -0.36976048       0.000
   0.37125745  0.37125745 -0.37125745       0.000
   0.37275448  0.37275448 -0.37275448       0.000
   0.37425148  0.37425148 -0.37425148       0.000
   0.37574852  0.37574852 -0.37574852       0.000
   0.37724549  0.37724549 -0.37724549       0.000
   0.37874252  0.37874252 -0.37874252       0.000
   0.38023952  0.38023952 -0.38023952       0.000
   0.38173652  0.38173652 -0.38173652       0.000
   0.38323352  0.38323352 -0.38323352       0.000
   0.38473052  0.38473052 -0.38473052       0.000
   0.38622752  0.38622752 -0.38622752       0.000
   0.38772452  0.38772452 -0.38772452       0.000
   0.38922155  0.38922155 -0.38922155       0.000
   0.39071855  0.39071855 -0.39071855       0.000
   0.39221555  0.39221555 -0.39221555       0.000
   0.39371255  0.39371255 -0.39371255       0.000
   0.39520958  0.39520958 -0.39520958       0.000
   0.39670655  0.39670655 -0.39670655       0.000
   0.39820358  0.39820358 -0.39820358       0.000
   0.39970058  0.39970058 -0.39970058       0.000
   0.40119761  0.40119761 -0.40119761       0.000
   0.40269458  0.40269458 -0.40269458       0.000
   0.40419161  0.40419161 -0.40419161       0.000
   0.40568861  0.40568861 -0.40568861       0.000
   0.40718561  0.40718561 -0.40718561       0.000
   0.40868261  0.40868261 -0.40868261       0.000
   0.41017964  0.41017964 -0.41017964       0.000
   0.41167662  0.41167662 -0.41167662       0.000
   0.41317365  0.41317365 -0.41317365       0.000
   0.41467065  0.41467065 -0.41467065       0.000
   0.41616768  0.41616768 -0.41616768       0.000
   0.41766465  0.41766465 -0.41766465       0.000
   0.41916168  0.41916168 -0.41916168       0.000
   0.42065868  0.42065868 -0.42065868       0.000
   0.42215565  0.42215565 -0.42215565       0.000
[...]
      1     -11.0538      2.00000
      2     -10.9535      2.00000
      3     -10.9535      2.00000
      4     -10.8882      2.00000
      5     -10.8882      2.00000
      6      -7.1751      2.00000
      7      -2.8453      2.00000
      8       2.6676      2.00000
      9       2.6676      2.00000
     10       4.7422      0.00000
     11       8.3942      0.00000
     12       8.3942      0.00000
     13      11.3940      0.00000
     14      13.9950      0.00000
     15      15.4819      0.00000
     16      15.4819      0.00000

 k-point  1144 :       0.4790    0.4790    0.4790
  band No.  band energies     occupation 
      1     -11.0538      2.00000
      2     -10.9535      2.00000
      3     -10.9535      2.00000
      4     -10.8881      2.00000
      5     -10.8881      2.00000
      6      -7.1732      2.00000
      7      -2.8487      2.00000
      8       2.6671      2.00000
      9       2.6671      2.00000
     10       4.7416      0.00000
     11       8.3939      0.00000
     12       8.3939      0.00000
     13      11.3936      0.00000
     14      14.0069      0.00000
     15      15.4984      0.00000
     16      15.4984      0.00000

 k-point  1145 :       0.4805    0.4805    0.4805
  band No.  band energies     occupation 
      1     -11.0539      2.00000
      2     -10.9534      2.00000
      3     -10.9534      2.00000
      4     -10.8881      2.00000
      5     -10.8881      2.00000
      6      -7.1714      2.00000
      7      -2.8520      2.00000
      8       2.6666      2.00000
      9       2.6666      2.00000
     10       4.7412      0.00000
     11       8.3937      0.00000
     12       8.3937      0.00000
     13      11.3933      0.00000
     14      14.0180      0.00000
     15      15.5141      0.00000
     16      15.5141      0.00000

 k-point  1146 :       0.4820    0.4820    0.4820
  band No.  band energies     occupation 
      1     -11.0539      2.00000
      2     -10.9534      2.00000
      3     -10.9534      2.00000
      4     -10.8881      2.00000
      5     -10.8881      2.00000
      6      -7.1697      2.00000
      7      -2.8550      2.00000
      8       2.6661      2.00000
      9       2.6661      2.00000
     10       4.7407      0.00000
     11       8.3934      0.00000
     12       8.3934      0.00000
     13      11.3930      0.00000
     14      14.0285      0.00000
     15      15.5290      0.00000
     16      15.5290      0.00000

 k-point  1147 :       0.4835    0.4835    0.4835
  band No.  band energies     occupation 
      1     -11.0539      2.00000
      2     -10.9534      2.00000
      3     -10.9534      2.00000
      4     -10.8881      2.00000
      5     -10.8881      2.00000
      6      -7.1681      2.00000
      7      -2.8577      2.00000
      8       2.6657      2.00000
      9       2.6657      2.00000
     10       4.7403      0.00000
     11       8.3931      0.00000
     12       8.3931      0.00000
     13      11.3927      0.00000
     14      14.0382      0.00000
     15      15.5431      0.00000
     16      15.5431      0.00000

 k-point  1148 :       0.4850    0.4850    0.4850
  band No.  band energies     occupation 
      1     -11.0540      2.00000
      2     -10.9534      2.00000
      3     -10.9534      2.00000
      4     -10.8881      2.00000
      5     -10.8881      2.00000
      6      -7.1667      2.00000
      7      -2.8603      2.00000
      8       2.6653      2.00000
      9       2.6653      2.00000
     10       4.7399      0.00000
     11       8.3929      0.00000
     12       8.3929      0.00000
     13      11.3925      0.00000
     14      14.0472      0.00000
     15      15.5562      0.00000
     16      15.5562      0.00000

 k-point  1149 :       0.4865    0.4865    0.4865
  band No.  band energies     occupation 
      1     -11.0540      2.00000
      2     -10.9534      2.00000
      3     -10.9534      2.00000
      4     -10.8881      2.00000
      5     -10.8881      2.00000
      6      -7.1654      2.00000
      7      -2.8625      2.00000
      8       2.6650      2.00000
      9       2.6650      2.00000
     10       4.7395      0.00000
     11       8.3927      0.00000
     12       8.3927      0.00000
     13      11.3923      0.00000
     14      14.0554      0.00000
     15      15.5683      0.00000
     16      15.5683      0.00000

 k-point  1150 :       0.4880    0.4880    0.4880
  band No.  band energies     occupation 
      1     -11.0540      2.00000
      2     -10.9534      2.00000
      3     -10.9534      2.00000
      4     -10.8881      2.00000
      5     -10.8881      2.00000
      6      -7.1643      2.00000
      7      -2.8646      2.00000
      8       2.6647      2.00000
      9       2.6647      2.00000
     10       4.7392      0.00000
     11       8.3925      0.00000
     12       8.3925      0.00000
     13      11.3921      0.00000
     14      14.0627      0.00000
     15      15.5793      0.00000
     16      15.5794      0.00000

 k-point  1151 :       0.4895    0.4895    0.4895
  band No.  band energies     occupation 
      1     -11.0541      2.00000
      2     -10.9534      2.00000
      3     -10.9534      2.00000
      4     -10.8881      2.00000
      5     -10.8881      2.00000
      6      -7.1633      2.00000
      7      -2.8664      2.00000
      8       2.6644      2.00000
      9       2.6644      2.00000
     10       4.7390      0.00000
     11       8.3924      0.00000
     12       8.3924      0.00000
     13      11.3919      0.00000
     14      14.0693      0.00000
     15      15.5892      0.00000
     16      15.5893      0.00000

 k-point  1152 :       0.4910    0.4910    0.4910
  band No.  band energies     occupation 
      1     -11.0541      2.00000
      2     -10.9534      2.00000
      3     -10.9534      2.00000
      4     -10.8881      2.00000
      5     -10.8881      2.00000
      6      -7.1624      2.00000
      7      -2.8680      2.00000
      8       2.6642      2.00000
      9       2.6642      2.00000
     10       4.7387      0.00000
     11       8.3922      0.00000
     12       8.3922      0.00000
     13      11.3917      0.00000
     14      14.0750      0.00000
     15      15.5979      0.00000
     16      15.5979      0.00000

 k-point  1153 :       0.4925    0.4925    0.4925
  band No.  band energies     occupation 
      1     -11.0541      2.00000
      2     -10.9534      2.00000
      3     -10.9534      2.00000
      4     -10.8881      2.00000
      5     -10.8881      2.00000
      6      -7.1616      2.00000
      7      -2.8693      2.00000
      8       2.6640      2.00000
      9       2.6640      2.00000
     10       4.7385      0.00000
     11       8.3921      0.00000
     12       8.3921      0.00000
     13      11.3916      0.00000
     14      14.0799      0.00000
     15      15.6054      0.00000
     16      15.6054      0.00000

 k-point  1154 :       0.4940    0.4940    0.4940
  band No.  band energies     occupation 
      1     -11.0541      2.00000
      2     -10.9534      2.00000
      3     -10.9534      2.00000
      4     -10.8881      2.00000
      5     -10.8881      2.00000
      6      -7.1610      2.00000
      7      -2.8704      2.00000
      8       2.6638      2.00000
      9       2.6638      2.00000
     10       4.7384      0.00000
     11       8.3920      0.00000
     12       8.3920      0.00000
     13      11.3915      0.00000
     14      14.0839      0.00000
     15      15.6116      0.00000
     16      15.6116      0.00000

 k-point  1155 :       0.4955    0.4955    0.4955
  band No.  band energies     occupation 
      1     -11.0541      2.00000
      2     -10.9534      2.00000
      3     -10.9534      2.00000
      4     -10.8881      2.00000
      5     -10.8881      2.00000
      6      -7.1605      2.00000
      7      -2.8712      2.00000
      8       2.6637      2.00000
      9       2.6637      2.00000
     10       4.7382      0.00000
     11       8.3920      0.00000
     12       8.3920      0.00000
     13      11.3914      0.00000
     14      14.0870      0.00000
     15      15.6165      0.00000
     16      15.6166      0.00000

 k-point  1156 :       0.4970    0.4970    0.4970
  band No.  band energies     occupation 
      1     -11.0541      2.00000
      2     -10.9534      2.00000
      3     -10.9534      2.00000
      4     -10.8881      2.00000
      5     -10.8881      2.00000
      6      -7.1602      2.00000
      7      -2.8718      2.00000
      8       2.6636      2.00000
      9       2.6636      2.00000
     10       4.7381      0.00000
     11       8.3919      0.00000
     12       8.3919      0.00000
     13      11.3913      0.00000
     14      14.0892      0.00000
     15      15.6200      0.00000
     16      15.6200      0.00000

 k-point  1157 :       0.4985    0.4985    0.4985
  band No.  band energies     occupation 
      1     -11.0541      2.00000
      2     -10.9534      2.00000
      3     -10.9534      2.00000
      4     -10.8881      2.00000
      5     -10.8881      2.00000
      6      -7.1600      2.00000
      7      -2.8722      2.00000
      8       2.6636      2.00000
      9       2.6636      2.00000
     10       4.7381      0.00000
     11       8.3919      0.00000
     12       8.3919      0.00000
     13      11.3913      0.00000
     14      14.0906      0.00000
     15      15.6221      0.00000
     16      15.6221      0.00000

 k-point  1158 :       0.5000    0.5000    0.5000
  band No.  band energies     occupation 
      1     -11.0541      2.00000
      2     -10.9534      2.00000
      3     -10.9534      2.00000
      4     -10.8881      2.00000
      5     -10.8881      2.00000
      6      -7.1599      2.00000
      7      -2.8723      2.00000
      8       2.6635      2.00000
      9       2.6635      2.00000
     10       4.7381      0.00000
     11       8.3919      0.00000
     12       8.3919      0.00000
     13      11.3913      0.00000
     14      14.0910      0.00000
     15      15.6228      0.00000
     16      15.6228      0.00000


--------------------------------------------------------------------------------------------------------


 soft charge-density along one line, spin component           1
         0         1         2         3         4         5         6         7         8         9
 total charge-density along one line
 
 pseudopotential strength for first ion, spin component:           1
-14.092   0.000  -0.000   0.000   0.000   2.064  -0.000   0.000
  0.000 -14.092  -0.000  -0.000   0.000  -0.000   2.064   0.000
 -0.000  -0.000 -14.090  -0.000   0.000   0.000   0.000   2.063
  0.000  -0.000  -0.000 -14.092  -0.000  -0.000   0.000   0.000
  0.000   0.000   0.000  -0.000 -14.090  -0.000  -0.000  -0.000
  2.064  -0.000   0.000  -0.000  -0.000   3.991  -0.000   0.000
 -0.000   2.064   0.000   0.000  -0.000  -0.000   3.991   0.000
  0.000   0.000   2.063   0.000  -0.000   0.000   0.000   3.990
 -0.000   0.000   0.000   2.064   0.000  -0.000   0.000   0.000
 -0.000  -0.000  -0.000   0.000   2.063  -0.000  -0.000   0.000
  0.000  -0.000  -0.000  -0.000  -0.000  -0.000   0.000   0.000
 -0.000   0.000   0.000   0.000   0.000   0.000  -0.000  -0.000
 -0.000   0.000  -0.000  -0.000  -0.000   0.000  -0.000   0.000
 -0.000  -0.000  -0.000  -0.000   0.000   0.000   0.000   0.000
 -0.000  -0.000  -0.000   0.000   0.000   0.000   0.000   0.000
  0.000  -0.000   0.000   0.001   0.000  -0.000   0.000  -0.000
  0.001   0.000   0.000   0.000  -0.000  -0.001  -0.000  -0.000
  0.000   0.001   0.000  -0.000  -0.000  -0.000  -0.001  -0.000
 total augmentation occupancy for first ion, spin component:           1
  2.000   0.000   0.000   0.000   0.000   0.000   0.000   0.000   0.000   0.000   0.000   0.000   0.000   0.000   0.000   0.000
  0.000   2.000   0.000   0.000   0.000   0.000   0.000   0.000   0.000   0.000   0.000   0.000   0.000   0.000   0.000   0.000
  0.000   0.000   2.000   0.000   0.000   0.000   0.000   0.000   0.000   0.000   0.000   0.000   0.000   0.000   0.000   0.000
  0.000   0.000   0.000   2.000   0.000   0.000   0.000   0.000   0.000   0.000   0.000   0.000   0.000   0.000   0.000   0.000
  0.000   0.000   0.000   0.000   2.000   0.000   0.000   0.000   0.000   0.000   0.000   0.000   0.000   0.000   0.000   0.000
  0.000   0.000   0.000   0.000   0.000   0.000   0.000   0.000   0.000   0.000   0.000   0.000   0.000   0.000   0.000   0.000
  0.000   0.000   0.000   0.000   0.000   0.000   0.000   0.000   0.000   0.000   0.000   0.000   0.000   0.000   0.000   0.000
  0.000   0.000   0.000   0.000   0.000   0.000   0.000   0.000   0.000   0.000   0.000   0.000   0.000   0.000   0.000   0.000
  0.000   0.000   0.000   0.000   0.000   0.000   0.000   0.000   0.000   0.000   0.000   0.000   0.000   0.000   0.000   0.000
  0.000   0.000   0.000   0.000   0.000   0.000   0.000   0.000   0.000   0.000   0.000   0.000   0.000   0.000   0.000   0.000
  0.000   0.000   0.000   0.000   0.000   0.000   0.000   0.000   0.000   0.000   2.000   0.000   0.000   0.000   0.000   0.000
  0.000   0.000   0.000   0.000   0.000   0.000   0.000   0.000   0.000   0.000   0.000   0.000   0.000   0.000   0.000   0.000
  0.000   0.000   0.000   0.000   0.000   0.000   0.000   0.000   0.000   0.000   0.000   0.000   0.333   0.000   0.000   0.000
  0.000   0.000   0.000   0.000   0.000   0.000   0.000   0.000   0.000   0.000   0.000   0.000   0.000   0.333   0.000   0.000
  0.000   0.000   0.000   0.000   0.000   0.000   0.000   0.000   0.000   0.000   0.000   0.000   0.000   0.000   0.333   0.000
  0.000   0.000   0.000   0.000   0.000   0.000   0.000   0.000   0.000   0.000   0.000   0.000   0.000   0.000   0.000   0.000
  0.000   0.000   0.000   0.000   0.000   0.000   0.000   0.000   0.000   0.000   0.000   0.000   0.000   0.000   0.000   0.000
  0.000   0.000   0.000   0.000   0.000   0.000   0.000   0.000   0.000   0.000   0.000   0.000   0.000   0.000   0.000   0.000


------------------------ aborting loop because EDIFF is reached ----------------------------------------


 


 total charge     
 
# of ion     s       p       d       tot
----------------------------------------
  1        0.879   0.806   9.995  11.680
  2        1.209   1.596   0.031   2.836
------------------------------------------------
tot        2.088   2.402  10.026  14.516
 
    CHARGE:  cpu time    0.0080: real time    0.0078
    FORLOC:  cpu time    0.0000: real time    0.0003
    FORNL :  cpu time    0.0880: real time    0.0881
    STRESS:  cpu time    1.0161: real time    1.0180
    FORCOR:  cpu time    0.0040: real time    0.0060
    FORHAR:  cpu time    0.0040: real time    0.0013
    OFIELD:  cpu time    0.0000: real time    0.0000

  FORCE on cell =-STRESS in cart. coord.  units (eV):
  Direction    XX          YY          ZZ          XY          YZ          ZX
  --------------------------------------------------------------------------------------
  Alpha Z    60.29113    60.29113    60.29113
  Ewald    -421.83412  -421.83412  -421.83412    -0.00000    -0.00000    -0.00000
  Hartree   240.43878   240.43878   240.43878     0.00000    -0.00000    -0.00000
  E(xc)     -96.27505   -96.27505   -96.27505     0.00001    -0.00001    -0.00001
  Local     -60.87066   -60.87066   -60.87066     0.00011    -0.00011    -0.00011
  n-local    44.26568    48.46066    47.86877    -0.78350    -1.78997    -0.47973
  augment   120.07558   120.07558   120.07558    -0.00008     0.00008     0.00008
  Kinetic   107.97704   112.63079   113.57543    -1.51350    -4.14933    -1.25356
  Fock        0.00000     0.00000     0.00000     0.00000     0.00000     0.00000
  -------------------------------------------------------------------------------------
  Total       0.08513     0.08513     0.08513    -0.00000     0.00000     0.00000
  in kB       3.01902     3.01902     3.01902    -0.00000     0.00000     0.00000
  external pressure =        3.02 kB  Pullay stress =        0.00 kB


 VOLUME and BASIS-vectors are now :
 -----------------------------------------------------------------------------
  energy-cutoff  :      500.00
  volume of cell :       45.18
      direct lattice vectors                 reciprocal lattice vectors
     2.826800000  2.826800000  0.000000000     0.176878449  0.176878449  0.176878449
     2.826800000  0.000000000 -2.826800000     0.176878449 -0.176878449 -0.176878449
     0.000000000  2.826800000 -2.826800000    -0.176878449  0.176878449 -0.176878449

  length of vectors
     3.997698898  3.997698898  3.997698898     0.306362461  0.306362461  0.306362461


 FORCES acting on ions
    electron-ion (+dipol)            ewald-force                    non-local-force                 convergence-correction
 -----------------------------------------------------------------------------------------------
   0.399E-06 0.416E-06 -.416E-06   -.206E-13 -.524E-14 0.156E-13   -.114E-15 -.971E-16 0.125E-15   0.815E-09 0.815E-09 -.815E-09
   -.304E-06 -.430E-06 0.430E-06   0.196E-13 0.339E-14 -.154E-13   -.139E-16 0.416E-16 -.208E-16   0.992E-10 0.992E-10 -.992E-10
 -----------------------------------------------------------------------------------------------
   0.954E-07 -.142E-07 0.142E-07   -.109E-14 -.185E-14 0.200E-15   -.128E-15 -.555E-16 0.104E-15   0.914E-09 0.914E-09 -.914E-09
 
 
 POSITION                                       TOTAL-FORCE (eV/Angst)
 -----------------------------------------------------------------------------------
      0.00000      0.00000      0.00000         0.000000      0.000000     -0.000000
      1.41340      1.41340     -1.41340        -0.000000     -0.000000      0.000000
 -----------------------------------------------------------------------------------
    total drift:                                0.000000     -0.000000      0.000000


--------------------------------------------------------------------------------------------------------



  FREE ENERGIE OF THE ION-ELECTRON SYSTEM (eV)
  ---------------------------------------------------
  free  energy   TOTEN  =        -9.06650053 eV

  energy  without entropy=       -9.06650053  energy(sigma->0) =       -9.06650053
 


--------------------------------------------------------------------------------------------------------


    POTLOK:  cpu time    0.0080: real time    0.0086


--------------------------------------------------------------------------------------------------------




--------------------------------------------------------------------------------------------------------


 writing wavefunctions
     LOOP+:  cpu time   14.6209: real time   17.5898
    4ORBIT:  cpu time    0.0000: real time    0.0000
 


 total charge     
 
# of ion     s       p       d       tot
----------------------------------------
  1        0.879   0.806   9.995  11.680
  2        1.209   1.596   0.031   2.836
------------------------------------------------
tot        2.088   2.402  10.026  14.516
 

 total amount of memory used by VASP on root node   112698. kBytes
========================================================================

   base      :      30000. kBytes
   nonl-proj :      65373. kBytes
   fftplans  :        501. kBytes
   grid      :        801. kBytes
   one-center:         15. kBytes
   wavefun   :      16008. kBytes
 
  
  
 General timing and accounting informations for this job:
 ========================================================
  
                  Total CPU time used (sec):       22.701
                            User time (sec):       17.309
                          System time (sec):        5.392
                         Elapsed time (sec):       29.623
  
                   Maximum memory used (kb):      108144.
                   Average memory used (kb):           0.
  
                          Minor page faults:        27438
                          Major page faults:            0
                 Voluntary context switches:          994
