PROCAR new format
# of k-points: 1158         # of bands:  16         # of ions:   2

 k-point    1 :    0.00000000 0.00000000 0.00000000     weight = 0.00462963

band   1 # energy  -10.97308247 # occ.  2.00000000
 
ion      s      p      d    tot
  1  0.000  0.000  0.983  0.983
  2  0.000  0.004  0.000  0.004
tot  0.000  0.004  0.983  0.987
 
band   2 # energy  -10.97308245 # occ.  2.00000000
 
ion      s      p      d    tot
  1  0.000  0.000  0.983  0.983
  2  0.000  0.004  0.000  0.004
tot  0.000  0.004  0.983  0.987
 
band   3 # energy  -10.97308245 # occ.  2.00000000
 
ion      s      p      d    tot
  1  0.000  0.000  0.983  0.983
  2  0.000  0.004  0.000  0.004
tot  0.000  0.004  0.983  0.987
 
band   4 # energy  -10.89179855 # occ.  2.00000000
 
ion      s      p      d    tot
  1  0.000  0.000  0.990  0.990
  2  0.000  0.000  0.000  0.000
tot  0.000  0.000  0.990  0.990
 
band   5 # energy  -10.89179855 # occ.  2.00000000
 
ion      s      p      d    tot
  1  0.000  0.000  0.990  0.990
  2  0.000  0.000  0.000  0.000
tot  0.000  0.000  0.990  0.990
 
band   6 # energy   -8.93957075 # occ.  2.00000000
 
ion      s      p      d    tot
  1  0.175  0.000  0.000  0.175
  2  0.422  0.000  0.000  0.422
tot  0.597  0.000  0.000  0.597
 
band   7 # energy    3.81344259 # occ.  2.00000000
 
ion      s      p      d    tot
  1  0.000  0.100  0.063  0.163
  2  0.000  0.459  0.005  0.464
tot  0.000  0.559  0.068  0.627
 
band   8 # energy    3.81344428 # occ.  2.00000000
 
ion      s      p      d    tot
  1  0.000  0.100  0.063  0.163
  2  0.000  0.459  0.005  0.464
tot  0.000  0.559  0.068  0.627
 
band   9 # energy    3.81344428 # occ.  2.00000000
 
ion      s      p      d    tot
  1  0.000  0.100  0.063  0.163
  2  0.000  0.459  0.005  0.464
tot  0.000  0.559  0.068  0.627
 
band  10 # energy    4.26703682 # occ.  0.00000000
 
ion      s      p      d    tot
  1  0.422  0.000  0.000  0.422
  2  0.362  0.000  0.000  0.362
tot  0.785  0.000  0.000  0.785
 
band  11 # energy    7.49716128 # occ.  0.00000000
 
ion      s      p      d    tot
  1  0.000  0.398  0.009  0.407
  2  0.000  0.040  0.068  0.108
tot  0.000  0.437  0.077  0.514
 
band  12 # energy    7.49716790 # occ.  0.00000000
 
ion      s      p      d    tot
  1  0.000  0.398  0.009  0.407
  2  0.000  0.040  0.068  0.108
tot  0.000  0.437  0.077  0.514
 
band  13 # energy    7.49716790 # occ.  0.00000000
 
ion      s      p      d    tot
  1  0.000  0.398  0.009  0.407
  2  0.000  0.040  0.068  0.108
tot  0.000  0.437  0.077  0.514
 
band  14 # energy   11.20003973 # occ.  0.00000000
 
ion      s      p      d    tot
  1  0.259  0.000  0.000  0.259
  2  0.021  0.000  0.000  0.021
tot  0.280  0.000  0.000  0.280
 
band  15 # energy   13.91796704 # occ.  0.00000000
 
ion      s      p      d    tot
  1  0.000  0.000  0.179  0.179
  2  0.000  0.000  0.192  0.192
tot  0.000  0.000  0.371  0.371
 
band  16 # energy   13.91796886 # occ.  0.00000000
 
ion      s      p      d    tot
  1  0.000  0.000  0.179  0.179
  2  0.000  0.000  0.192  0.192
tot  0.000  0.000  0.371  0.371
 

 k-point    2 :    0.16666667 0.00000000 0.00000000     weight = 0.03703704

band   1 # energy  -10.99611963 # occ.  2.00000000
 
ion      s      p      d    tot
  1  0.001  0.000  0.971  0.972
  2  0.008  0.003  0.000  0.011
tot  0.009  0.003  0.971  0.983
 
band   2 # energy  -10.96708485 # occ.  2.00000000
 
ion      s      p      d    tot
  1  0.000  0.000  0.984  0.984
  2  0.000  0.003  0.000  0.004
tot  0.000  0.004  0.984  0.988
 
band   3 # energy  -10.96708483 # occ.  2.00000000
 
ion      s      p      d    tot
  1  0.000  0.000  0.984  0.984
  2  0.000  0.003  0.000  0.004
tot  0.000  0.004  0.984  0.988
 
band   4 # energy  -10.89200139 # occ.  2.00000000
 
ion      s      p      d    tot
  1  0.000  0.000  0.990  0.990
  2  0.000  0.000  0.000  0.000
tot  0.000  0.000  0.990  0.990
 
band   5 # energy  -10.89200137 # occ.  2.00000000
 
ion      s      p      d    tot
  1  0.000  0.000  0.990  0.990
  2  0.000  0.000  0.000  0.000
tot  0.000  0.000  0.990  0.990
 
band   6 # energy   -8.61722896 # occ.  2.00000000
 
ion      s      p      d    tot
  1  0.164  0.005  0.013  0.181
  2  0.423  0.003  0.000  0.426
tot  0.587  0.008  0.013  0.608
 
band   7 # energy    1.07332686 # occ.  2.00000000
 
ion      s      p      d    tot
  1  0.183  0.076  0.030  0.289
  2  0.133  0.210  0.005  0.348
tot  0.315  0.286  0.035  0.637
 
band   8 # energy    3.42857926 # occ.  2.00000000
 
ion      s      p      d    tot
  1  0.000  0.133  0.050  0.183
  2  0.000  0.420  0.006  0.426
tot  0.000  0.553  0.056  0.609
 
band   9 # energy    3.42858114 # occ.  2.00000000
 
ion      s      p      d    tot
  1  0.000  0.133  0.050  0.183
  2  0.000  0.420  0.006  0.426
tot  0.000  0.553  0.056  0.609
 
band  10 # energy    5.39020622 # occ.  0.00000000
 
ion      s      p      d    tot
  1  0.258  0.097  0.007  0.362
  2  0.169  0.099  0.015  0.283
tot  0.427  0.196  0.022  0.646
 
band  11 # energy    8.04732473 # occ.  0.00000000
 
ion      s      p      d    tot
  1  0.000  0.364  0.020  0.385
  2  0.000  0.077  0.066  0.143
tot  0.000  0.441  0.087  0.528
 
band  12 # energy    8.04733041 # occ.  0.00000000
 
ion      s      p      d    tot
  1  0.000  0.364  0.020  0.385
  2  0.000  0.077  0.066  0.143
tot  0.000  0.441  0.087  0.528
 
band  13 # energy    8.42615906 # occ.  0.00000000
 
ion      s      p      d    tot
  1  0.068  0.189  0.028  0.285
  2  0.052  0.180  0.039  0.271
tot  0.120  0.369  0.067  0.555
 
band  14 # energy   12.58202729 # occ.  0.00000000
 
ion      s      p      d    tot
  1  0.145  0.119  0.003  0.268
  2  0.010  0.023  0.010  0.043
tot  0.155  0.142  0.014  0.311
 
band  15 # energy   12.79360764 # occ.  0.00000000
 
ion      s      p      d    tot
  1  0.000  0.008  0.134  0.143
  2  0.000  0.002  0.131  0.133
tot  0.000  0.010  0.265  0.275
 
band  16 # energy   12.79360818 # occ.  0.00000000
 
ion      s      p      d    tot
  1  0.000  0.008  0.134  0.143
  2  0.000  0.002  0.131  0.133
tot  0.000  0.010  0.265  0.275
 

 k-point    3 :    0.33333333 0.00000000 0.00000000     weight = 0.03703704

band   1 # energy  -11.03618218 # occ.  2.00000000
 
ion      s      p      d    tot
  1  0.001  0.001  0.955  0.957
  2  0.020  0.001  0.000  0.021
tot  0.021  0.001  0.955  0.978
 
band   2 # energy  -10.95709640 # occ.  2.00000000
 
ion      s      p      d    tot
  1  0.000  0.000  0.985  0.985
  2  0.000  0.003  0.000  0.003
tot  0.000  0.003  0.985  0.988
 
band   3 # energy  -10.95709631 # occ.  2.00000000
 
ion      s      p      d    tot
  1  0.000  0.000  0.985  0.985
  2  0.000  0.003  0.000  0.003
tot  0.000  0.003  0.985  0.988
 
band   4 # energy  -10.89028503 # occ.  2.00000000
 
ion      s      p      d    tot
  1  0.000  0.000  0.990  0.990
  2  0.000  0.000  0.000  0.000
tot  0.000  0.000  0.990  0.990
 
band   5 # energy  -10.89028495 # occ.  2.00000000
 
ion      s      p      d    tot
  1  0.000  0.000  0.990  0.990
  2  0.000  0.000  0.000  0.000
tot  0.000  0.000  0.990  0.990
 
band   6 # energy   -7.78400303 # occ.  2.00000000
 
ion      s      p      d    tot
  1  0.129  0.017  0.033  0.180
  2  0.452  0.006  0.000  0.458
tot  0.581  0.023  0.034  0.638
 
band   7 # energy   -1.60307488 # occ.  2.00000000
 
ion      s      p      d    tot
  1  0.226  0.070  0.013  0.309
  2  0.090  0.169  0.003  0.262
tot  0.316  0.239  0.017  0.572
 
band   8 # energy    2.87928357 # occ.  2.00000000
 
ion      s      p      d    tot
  1  0.000  0.165  0.034  0.199
  2  0.000  0.389  0.005  0.394
tot  0.000  0.554  0.039  0.593
 
band   9 # energy    2.87928580 # occ.  2.00000000
 
ion      s      p      d    tot
  1  0.000  0.165  0.034  0.199
  2  0.000  0.389  0.005  0.394
tot  0.000  0.554  0.039  0.593
 
band  10 # energy    4.95739592 # occ.  0.00000000
 
ion      s      p      d    tot
  1  0.280  0.074  0.014  0.368
  2  0.149  0.050  0.024  0.223
tot  0.429  0.123  0.038  0.591
 
band  11 # energy    8.45828380 # occ.  0.00000000
 
ion      s      p      d    tot
  1  0.000  0.279  0.044  0.323
  2  0.000  0.079  0.069  0.148
tot  0.000  0.358  0.113  0.471
 
band  12 # energy    8.45828869 # occ.  0.00000000
 
ion      s      p      d    tot
  1  0.000  0.279  0.044  0.323
  2  0.000  0.079  0.069  0.148
tot  0.000  0.358  0.113  0.471
 
band  13 # energy   10.96111639 # occ.  0.00000000
 
ion      s      p      d    tot
  1  0.034  0.113  0.028  0.175
  2  0.035  0.272  0.014  0.322
tot  0.069  0.386  0.042  0.497
 
band  14 # energy   12.39923451 # occ.  0.00000000
 
ion      s      p      d    tot
  1  0.107  0.045  0.014  0.167
  2  0.029  0.013  0.018  0.060
tot  0.136  0.058  0.033  0.227
 
band  15 # energy   13.41779122 # occ.  0.00000000
 
ion      s      p      d    tot
  1  0.000  0.065  0.115  0.179
  2  0.000  0.031  0.125  0.156
tot  0.000  0.096  0.240  0.336
 
band  16 # energy   13.41779242 # occ.  0.00000000
 
ion      s      p      d    tot
  1  0.000  0.065  0.115  0.179
  2  0.000  0.031  0.125  0.156
tot  0.000  0.096  0.240  0.336
 

 k-point    4 :    0.50000000 0.00000000 0.00000000     weight = 0.01851852

band   1 # energy  -11.05412620 # occ.  2.00000000
 
ion      s      p      d    tot
  1  0.001  0.001  0.950  0.952
  2  0.024  0.000  0.000  0.024
tot  0.025  0.001  0.950  0.976
 
band   2 # energy  -10.95339539 # occ.  2.00000000
 
ion      s      p      d    tot
  1  0.000  0.000  0.985  0.985
  2  0.000  0.003  0.000  0.003
tot  0.000  0.003  0.985  0.988
 
band   3 # energy  -10.95339525 # occ.  2.00000000
 
ion      s      p      d    tot
  1  0.000  0.000  0.985  0.985
  2  0.000  0.003  0.000  0.003
tot  0.000  0.003  0.985  0.988
 
band   4 # energy  -10.88809809 # occ.  2.00000000
 
ion      s      p      d    tot
  1  0.000  0.000  0.990  0.990
  2  0.000  0.000  0.000  0.000
tot  0.000  0.000  0.990  0.990
 
band   5 # energy  -10.88809797 # occ.  2.00000000
 
ion      s      p      d    tot
  1  0.000  0.000  0.990  0.990
  2  0.000  0.000  0.000  0.000
tot  0.000  0.000  0.990  0.990
 
band   6 # energy   -7.15991912 # occ.  2.00000000
 
ion      s      p      d    tot
  1  0.090  0.027  0.047  0.164
  2  0.505  0.002  0.001  0.508
tot  0.595  0.029  0.048  0.672
 
band   7 # energy   -2.87230849 # occ.  2.00000000
 
ion      s      p      d    tot
  1  0.269  0.061  0.000  0.329
  2  0.032  0.162  0.002  0.196
tot  0.300  0.223  0.002  0.526
 
band   8 # energy    2.66354585 # occ.  2.00000000
 
ion      s      p      d    tot
  1  0.000  0.175  0.028  0.203
  2  0.000  0.382  0.004  0.386
tot  0.000  0.557  0.032  0.589
 
band   9 # energy    2.66354818 # occ.  2.00000000
 
ion      s      p      d    tot
  1  0.000  0.175  0.028  0.203
  2  0.000  0.382  0.004  0.386
tot  0.000  0.557  0.032  0.589
 
band  10 # energy    4.73806216 # occ.  0.00000000
 
ion      s      p      d    tot
  1  0.293  0.056  0.019  0.367
  2  0.151  0.042  0.025  0.219
tot  0.444  0.098  0.044  0.586
 
band  11 # energy    8.39186065 # occ.  0.00000000
 
ion      s      p      d    tot
  1  0.000  0.235  0.055  0.290
  2  0.000  0.067  0.072  0.139
tot  0.000  0.302  0.127  0.429
 
band  12 # energy    8.39186502 # occ.  0.00000000
 
ion      s      p      d    tot
  1  0.000  0.235  0.055  0.290
  2  0.000  0.067  0.072  0.139
tot  0.000  0.302  0.127  0.429
 
band  13 # energy   11.39127085 # occ.  0.00000000
 
ion      s      p      d    tot
  1  0.008  0.049  0.031  0.088
  2  0.001  0.103  0.005  0.109
tot  0.009  0.152  0.036  0.196
 
band  14 # energy   14.09102488 # occ.  0.00000000
 
ion      s      p      d    tot
  1  0.117  0.003  0.008  0.127
  2  0.004  0.339  0.012  0.355
tot  0.121  0.341  0.020  0.483
 
band  15 # energy   15.62278653 # occ.  0.00000000
 
ion      s      p      d    tot
  1  0.000  0.172  0.040  0.212
  2  0.000  0.077  0.116  0.192
tot  0.000  0.249  0.155  0.404
 
band  16 # energy   15.62284291 # occ.  0.00000000
 
ion      s      p      d    tot
  1  0.000  0.172  0.040  0.212
  2  0.000  0.077  0.116  0.192
tot  0.000  0.249  0.155  0.404
 

 k-point    5 :    0.16666667 0.16666667 0.00000000     weight = 0.02777778

band   1 # energy  -11.00830145 # occ.  2.00000000
 
ion      s      p      d    tot
  1  0.001  0.000  0.968  0.969
  2  0.010  0.002  0.000  0.013
tot  0.011  0.003  0.968  0.982
 
band   2 # energy  -10.96112142 # occ.  2.00000000
 
ion      s      p      d    tot
  1  0.000  0.000  0.984  0.985
  2  0.000  0.003  0.000  0.004
tot  0.000  0.003  0.985  0.988
 
band   3 # energy  -10.96112141 # occ.  2.00000000
 
ion      s      p      d    tot
  1  0.000  0.000  0.984  0.985
  2  0.000  0.003  0.000  0.004
tot  0.000  0.003  0.985  0.988
 
band   4 # energy  -10.89722036 # occ.  2.00000000
 
ion      s      p      d    tot
  1  0.000  0.000  0.989  0.989
  2  0.000  0.000  0.000  0.001
tot  0.000  0.000  0.989  0.989
 
band   5 # energy  -10.88856867 # occ.  2.00000000
 
ion      s      p      d    tot
  1  0.000  0.000  0.990  0.990
  2  0.000  0.000  0.000  0.000
tot  0.000  0.000  0.990  0.990
 
band   6 # energy   -8.50984706 # occ.  2.00000000
 
ion      s      p      d    tot
  1  0.160  0.007  0.015  0.182
  2  0.425  0.004  0.000  0.429
tot  0.585  0.010  0.015  0.610
 
band   7 # energy    1.07955343 # occ.  2.00000000
 
ion      s      p      d    tot
  1  0.240  0.048  0.034  0.321
  2  0.170  0.191  0.005  0.366
tot  0.410  0.239  0.039  0.687
 
band   8 # energy    2.78851896 # occ.  2.00000000
 
ion      s      p      d    tot
  1  0.000  0.158  0.037  0.195
  2  0.000  0.369  0.007  0.376
tot  0.000  0.527  0.044  0.571
 
band   9 # energy    2.78852055 # occ.  2.00000000
 
ion      s      p      d    tot
  1  0.000  0.158  0.037  0.195
  2  0.000  0.369  0.007  0.376
tot  0.000  0.527  0.044  0.571
 
band  10 # energy    6.27026682 # occ.  0.00000000
 
ion      s      p      d    tot
  1  0.194  0.099  0.029  0.322
  2  0.004  0.151  0.038  0.193
tot  0.197  0.250  0.067  0.514
 
band  11 # energy    6.86203423 # occ.  0.00000000
 
ion      s      p      d    tot
  1  0.077  0.221  0.005  0.303
  2  0.160  0.131  0.017  0.308
tot  0.238  0.352  0.021  0.611
 
band  12 # energy    9.05296797 # occ.  0.00000000
 
ion      s      p      d    tot
  1  0.000  0.339  0.032  0.371
  2  0.000  0.135  0.068  0.203
tot  0.000  0.474  0.100  0.574
 
band  13 # energy    9.05297204 # occ.  0.00000000
 
ion      s      p      d    tot
  1  0.000  0.339  0.032  0.371
  2  0.000  0.135  0.068  0.203
tot  0.000  0.474  0.100  0.574
 
band  14 # energy   11.18342563 # occ.  0.00000000
 
ion      s      p      d    tot
  1  0.007  0.001  0.106  0.114
  2  0.023  0.016  0.084  0.124
tot  0.030  0.017  0.190  0.238
 
band  15 # energy   13.30480856 # occ.  0.00000000
 
ion      s      p      d    tot
  1  0.170  0.157  0.004  0.332
  2  0.005  0.022  0.017  0.044
tot  0.176  0.179  0.021  0.376
 
band  16 # energy   14.36608027 # occ.  0.00000000
 
ion      s      p      d    tot
  1  0.000  0.000  0.169  0.169
  2  0.000  0.000  0.196  0.196
tot  0.000  0.000  0.365  0.365
 

 k-point    6 :    0.33333333 0.16666667 0.00000000     weight = 0.11111111

band   1 # energy  -11.03929070 # occ.  2.00000000
 
ion      s      p      d    tot
  1  0.001  0.001  0.957  0.958
  2  0.019  0.001  0.000  0.020
tot  0.020  0.002  0.957  0.979
 
band   2 # energy  -10.95241424 # occ.  2.00000000
 
ion      s      p      d    tot
  1  0.000  0.000  0.985  0.985
  2  0.000  0.003  0.000  0.003
tot  0.000  0.003  0.986  0.989
 
band   3 # energy  -10.94992559 # occ.  2.00000000
 
ion      s      p      d    tot
  1  0.000  0.000  0.986  0.986
  2  0.000  0.003  0.000  0.003
tot  0.000  0.003  0.986  0.989
 
band   4 # energy  -10.90015334 # occ.  2.00000000
 
ion      s      p      d    tot
  1  0.000  0.000  0.988  0.988
  2  0.000  0.000  0.000  0.001
tot  0.000  0.000  0.988  0.989
 
band   5 # energy  -10.88610162 # occ.  2.00000000
 
ion      s      p      d    tot
  1  0.000  0.000  0.990  0.990
  2  0.000  0.000  0.000  0.000
tot  0.000  0.000  0.990  0.990
 
band   6 # energy   -7.83486676 # occ.  2.00000000
 
ion      s      p      d    tot
  1  0.131  0.017  0.030  0.179
  2  0.447  0.007  0.000  0.454
tot  0.578  0.025  0.030  0.633
 
band   7 # energy   -0.95530983 # occ.  2.00000000
 
ion      s      p      d    tot
  1  0.259  0.055  0.021  0.335
  2  0.124  0.167  0.004  0.296
tot  0.383  0.222  0.025  0.631
 
band   8 # energy    1.92694893 # occ.  2.00000000
 
ion      s      p      d    tot
  1  0.043  0.152  0.025  0.220
  2  0.018  0.298  0.007  0.323
tot  0.061  0.450  0.032  0.543
 
band   9 # energy    2.22865565 # occ.  2.00000000
 
ion      s      p      d    tot
  1  0.000  0.177  0.025  0.202
  2  0.000  0.347  0.005  0.352
tot  0.000  0.524  0.030  0.554
 
band  10 # energy    6.24455071 # occ.  0.00000000
 
ion      s      p      d    tot
  1  0.153  0.102  0.033  0.288
  2  0.044  0.142  0.034  0.220
tot  0.197  0.244  0.068  0.509
 
band  11 # energy    7.53537094 # occ.  0.00000000
 
ion      s      p      d    tot
  1  0.097  0.203  0.016  0.316
  2  0.078  0.137  0.029  0.244
tot  0.175  0.340  0.045  0.560
 
band  12 # energy    9.37255726 # occ.  0.00000000
 
ion      s      p      d    tot
  1  0.001  0.152  0.063  0.217
  2  0.011  0.087  0.067  0.164
tot  0.012  0.239  0.130  0.381
 
band  13 # energy    9.84500071 # occ.  0.00000000
 
ion      s      p      d    tot
  1  0.000  0.287  0.047  0.334
  2  0.000  0.141  0.072  0.212
tot  0.000  0.428  0.119  0.546
 
band  14 # energy   12.54856981 # occ.  0.00000000
 
ion      s      p      d    tot
  1  0.031  0.107  0.067  0.205
  2  0.036  0.183  0.055  0.274
tot  0.067  0.289  0.122  0.479
 
band  15 # energy   14.44115157 # occ.  0.00000000
 
ion      s      p      d    tot
  1  0.068  0.135  0.030  0.232
  2  0.002  0.022  0.045  0.069
tot  0.070  0.157  0.075  0.302
 
band  16 # energy   14.69258606 # occ.  0.00000000
 
ion      s      p      d    tot
  1  0.000  0.046  0.126  0.171
  2  0.000  0.022  0.158  0.180
tot  0.000  0.067  0.284  0.352
 

 k-point    7 :    0.50000000 0.16666667 0.00000000     weight = 0.11111111

band   1 # energy  -11.05839400 # occ.  2.00000000
 
ion      s      p      d    tot
  1  0.001  0.001  0.950  0.952
  2  0.025  0.000  0.000  0.025
tot  0.025  0.001  0.950  0.977
 
band   2 # energy  -10.94935985 # occ.  2.00000000
 
ion      s      p      d    tot
  1  0.000  0.000  0.985  0.986
  2  0.000  0.002  0.000  0.003
tot  0.000  0.002  0.986  0.988
 
band   3 # energy  -10.94520207 # occ.  2.00000000
 
ion      s      p      d    tot
  1  0.000  0.000  0.986  0.986
  2  0.000  0.002  0.000  0.003
tot  0.000  0.003  0.987  0.989
 
band   4 # energy  -10.89581833 # occ.  2.00000000
 
ion      s      p      d    tot
  1  0.000  0.000  0.989  0.989
  2  0.000  0.000  0.000  0.000
tot  0.000  0.000  0.989  0.989
 
band   5 # energy  -10.88664778 # occ.  2.00000000
 
ion      s      p      d    tot
  1  0.000  0.000  0.990  0.990
  2  0.000  0.000  0.000  0.000
tot  0.000  0.000  0.990  0.990
 
band   6 # energy   -7.02882830 # occ.  2.00000000
 
ion      s      p      d    tot
  1  0.080  0.031  0.047  0.157
  2  0.510  0.004  0.001  0.515
tot  0.590  0.035  0.047  0.672
 
band   7 # energy   -2.61716306 # occ.  2.00000000
 
ion      s      p      d    tot
  1  0.306  0.049  0.004  0.359
  2  0.045  0.157  0.003  0.205
tot  0.350  0.207  0.007  0.564
 
band   8 # energy    1.14332061 # occ.  2.00000000
 
ion      s      p      d    tot
  1  0.062  0.144  0.019  0.225
  2  0.027  0.265  0.006  0.297
tot  0.088  0.408  0.025  0.521
 
band   9 # energy    2.15976718 # occ.  2.00000000
 
ion      s      p      d    tot
  1  0.000  0.183  0.022  0.204
  2  0.000  0.351  0.004  0.355
tot  0.000  0.533  0.026  0.559
 
band  10 # energy    6.07148950 # occ.  0.00000000
 
ion      s      p      d    tot
  1  0.174  0.096  0.032  0.301
  2  0.076  0.122  0.031  0.229
tot  0.249  0.218  0.062  0.530
 
band  11 # energy    8.20587333 # occ.  0.00000000
 
ion      s      p      d    tot
  1  0.053  0.156  0.040  0.249
  2  0.027  0.130  0.048  0.205
tot  0.079  0.286  0.088  0.454
 
band  12 # energy    9.53858065 # occ.  0.00000000
 
ion      s      p      d    tot
  1  0.000  0.233  0.058  0.291
  2  0.000  0.107  0.074  0.181
tot  0.000  0.341  0.132  0.473
 
band  13 # energy   10.77108153 # occ.  0.00000000
 
ion      s      p      d    tot
  1  0.021  0.163  0.052  0.236
  2  0.018  0.149  0.051  0.218
tot  0.038  0.313  0.103  0.454
 
band  14 # energy   13.54422091 # occ.  0.00000000
 
ion      s      p      d    tot
  1  0.010  0.104  0.058  0.172
  2  0.002  0.124  0.037  0.164
tot  0.013  0.228  0.095  0.335
 
band  15 # energy   15.25547999 # occ.  0.00000000
 
ion      s      p      d    tot
  1  0.077  0.058  0.040  0.175
  2  0.017  0.146  0.024  0.187
tot  0.094  0.204  0.064  0.361
 
band  16 # energy   15.64836221 # occ.  0.00000000
 
ion      s      p      d    tot
  1  0.000  0.148  0.068  0.215
  2  0.000  0.063  0.134  0.197
tot  0.000  0.211  0.202  0.413
 

 k-point    8 :   -0.33333333 0.16666667 0.00000000     weight = 0.11111111

band   1 # energy  -11.05163480 # occ.  2.00000000
 
ion      s      p      d    tot
  1  0.001  0.001  0.951  0.953
  2  0.023  0.000  0.000  0.024
tot  0.024  0.001  0.952  0.977
 
band   2 # energy  -10.95068976 # occ.  2.00000000
 
ion      s      p      d    tot
  1  0.000  0.000  0.985  0.986
  2  0.000  0.002  0.000  0.003
tot  0.000  0.002  0.986  0.988
 
band   3 # energy  -10.94914627 # occ.  2.00000000
 
ion      s      p      d    tot
  1  0.000  0.000  0.986  0.986
  2  0.000  0.003  0.000  0.003
tot  0.000  0.003  0.986  0.989
 
band   4 # energy  -10.89224679 # occ.  2.00000000
 
ion      s      p      d    tot
  1  0.000  0.000  0.990  0.990
  2  0.000  0.000  0.000  0.000
tot  0.000  0.000  0.990  0.990
 
band   5 # energy  -10.89075630 # occ.  2.00000000
 
ion      s      p      d    tot
  1  0.000  0.000  0.990  0.990
  2  0.000  0.000  0.000  0.000
tot  0.000  0.000  0.990  0.990
 
band   6 # energy   -7.25755683 # occ.  2.00000000
 
ion      s      p      d    tot
  1  0.098  0.027  0.042  0.167
  2  0.487  0.006  0.001  0.493
tot  0.584  0.032  0.043  0.660
 
band   7 # energy   -2.19646061 # occ.  2.00000000
 
ion      s      p      d    tot
  1  0.288  0.053  0.009  0.350
  2  0.072  0.158  0.004  0.233
tot  0.360  0.211  0.012  0.583
 
band   8 # energy    0.94277087 # occ.  2.00000000
 
ion      s      p      d    tot
  1  0.051  0.148  0.017  0.216
  2  0.019  0.262  0.005  0.287
tot  0.070  0.410  0.023  0.503
 
band   9 # energy    2.60238292 # occ.  2.00000000
 
ion      s      p      d    tot
  1  0.000  0.175  0.028  0.203
  2  0.000  0.374  0.005  0.379
tot  0.000  0.549  0.033  0.582
 
band  10 # energy    6.22183023 # occ.  0.00000000
 
ion      s      p      d    tot
  1  0.200  0.105  0.024  0.329
  2  0.091  0.126  0.028  0.245
tot  0.291  0.231  0.052  0.574
 
band  11 # energy    8.46007665 # occ.  0.00000000
 
ion      s      p      d    tot
  1  0.028  0.152  0.048  0.227
  2  0.018  0.116  0.053  0.187
tot  0.045  0.268  0.101  0.414
 
band  12 # energy    9.08143965 # occ.  0.00000000
 
ion      s      p      d    tot
  1  0.000  0.270  0.046  0.315
  2  0.000  0.097  0.068  0.165
tot  0.000  0.367  0.113  0.480
 
band  13 # energy   10.86733354 # occ.  0.00000000
 
ion      s      p      d    tot
  1  0.045  0.135  0.037  0.216
  2  0.030  0.235  0.034  0.299
tot  0.074  0.370  0.071  0.515
 
band  14 # energy   12.80094852 # occ.  0.00000000
 
ion      s      p      d    tot
  1  0.000  0.064  0.118  0.182
  2  0.000  0.027  0.123  0.150
tot  0.000  0.090  0.241  0.332
 
band  15 # energy   13.70432723 # occ.  0.00000000
 
ion      s      p      d    tot
  1  0.023  0.202  0.040  0.265
  2  0.006  0.073  0.033  0.112
tot  0.029  0.275  0.073  0.377
 
band  16 # energy   15.46478764 # occ.  0.00000000
 
ion      s      p      d    tot
  1  0.046  0.088  0.065  0.200
  2  0.029  0.047  0.056  0.132
tot  0.075  0.135  0.121  0.332
 

 k-point    9 :   -0.16666667 0.16666667 0.00000000     weight = 0.05555556

band   1 # energy  -11.02339931 # occ.  2.00000000
 
ion      s      p      d    tot
  1  0.001  0.001  0.960  0.962
  2  0.016  0.001  0.000  0.018
tot  0.017  0.002  0.961  0.980
 
band   2 # energy  -10.96012922 # occ.  2.00000000
 
ion      s      p      d    tot
  1  0.000  0.000  0.985  0.985
  2  0.000  0.003  0.000  0.004
tot  0.000  0.003  0.985  0.988
 
band   3 # energy  -10.95685714 # occ.  2.00000000
 
ion      s      p      d    tot
  1  0.000  0.000  0.985  0.985
  2  0.000  0.003  0.000  0.003
tot  0.000  0.003  0.985  0.988
 
band   4 # energy  -10.89484598 # occ.  2.00000000
 
ion      s      p      d    tot
  1  0.000  0.000  0.989  0.989
  2  0.000  0.000  0.000  0.000
tot  0.000  0.000  0.990  0.990
 
band   5 # energy  -10.88986522 # occ.  2.00000000
 
ion      s      p      d    tot
  1  0.000  0.000  0.990  0.990
  2  0.000  0.000  0.000  0.000
tot  0.000  0.000  0.990  0.990
 
band   6 # energy   -8.11729163 # occ.  2.00000000
 
ion      s      p      d    tot
  1  0.144  0.012  0.025  0.182
  2  0.435  0.006  0.000  0.441
tot  0.580  0.018  0.026  0.624
 
band   7 # energy   -0.33288063 # occ.  2.00000000
 
ion      s      p      d    tot
  1  0.238  0.061  0.024  0.323
  2  0.137  0.176  0.005  0.318
tot  0.375  0.237  0.029  0.642
 
band   8 # energy    1.68978798 # occ.  2.00000000
 
ion      s      p      d    tot
  1  0.025  0.160  0.023  0.208
  2  0.003  0.292  0.007  0.302
tot  0.027  0.453  0.030  0.510
 
band   9 # energy    3.28252806 # occ.  2.00000000
 
ion      s      p      d    tot
  1  0.000  0.149  0.043  0.192
  2  0.000  0.416  0.006  0.422
tot  0.000  0.565  0.049  0.613
 
band  10 # energy    6.35388921 # occ.  0.00000000
 
ion      s      p      d    tot
  1  0.231  0.112  0.012  0.355
  2  0.118  0.157  0.018  0.293
tot  0.349  0.269  0.030  0.648
 
band  11 # energy    8.22538317 # occ.  0.00000000
 
ion      s      p      d    tot
  1  0.042  0.204  0.040  0.286
  2  0.039  0.123  0.050  0.212
tot  0.081  0.327  0.091  0.499
 
band  12 # energy    8.34817529 # occ.  0.00000000
 
ion      s      p      d    tot
  1  0.000  0.353  0.023  0.376
  2  0.000  0.077  0.063  0.141
tot  0.000  0.431  0.087  0.517
 
band  13 # energy    9.38931548 # occ.  0.00000000
 
ion      s      p      d    tot
  1  0.020  0.163  0.037  0.220
  2  0.017  0.173  0.048  0.237
tot  0.036  0.335  0.085  0.456
 
band  14 # energy   11.76058009 # occ.  0.00000000
 
ion      s      p      d    tot
  1  0.000  0.002  0.131  0.133
  2  0.000  0.002  0.120  0.122
tot  0.000  0.004  0.251  0.255
 
band  15 # energy   13.58666939 # occ.  0.00000000
 
ion      s      p      d    tot
  1  0.000  0.136  0.075  0.211
  2  0.023  0.087  0.044  0.153
tot  0.023  0.223  0.119  0.365
 
band  16 # energy   14.31276441 # occ.  0.00000000
 
ion      s      p      d    tot
  1  0.119  0.183  0.008  0.310
  2  0.001  0.044  0.049  0.093
tot  0.120  0.226  0.057  0.403
 

 k-point   10 :    0.33333333 0.33333333 0.00000000     weight = 0.02777778

band   1 # energy  -11.06305372 # occ.  2.00000000
 
ion      s      p      d    tot
  1  0.001  0.001  0.953  0.955
  2  0.022  0.001  0.000  0.023
tot  0.023  0.001  0.953  0.977
 
band   2 # energy  -10.93632743 # occ.  2.00000000
 
ion      s      p      d    tot
  1  0.000  0.000  0.987  0.987
  2  0.000  0.002  0.000  0.003
tot  0.000  0.002  0.988  0.990
 
band   3 # energy  -10.93632742 # occ.  2.00000000
 
ion      s      p      d    tot
  1  0.000  0.000  0.987  0.987
  2  0.000  0.002  0.000  0.003
tot  0.000  0.002  0.988  0.990
 
band   4 # energy  -10.91063046 # occ.  2.00000000
 
ion      s      p      d    tot
  1  0.000  0.000  0.986  0.986
  2  0.000  0.001  0.000  0.001
tot  0.000  0.001  0.987  0.987
 
band   5 # energy  -10.88210148 # occ.  2.00000000
 
ion      s      p      d    tot
  1  0.000  0.000  0.991  0.991
  2  0.000  0.000  0.000  0.000
tot  0.000  0.000  0.991  0.991
 
band   6 # energy   -7.37114803 # occ.  2.00000000
 
ion      s      p      d    tot
  1  0.103  0.027  0.035  0.165
  2  0.472  0.008  0.000  0.480
tot  0.575  0.036  0.035  0.646
 
band   7 # energy   -1.57009547 # occ.  2.00000000
 
ion      s      p      d    tot
  1  0.333  0.027  0.021  0.381
  2  0.119  0.152  0.005  0.276
tot  0.452  0.179  0.026  0.658
 
band   8 # energy    1.56724615 # occ.  2.00000000
 
ion      s      p      d    tot
  1  0.000  0.187  0.015  0.202
  2  0.000  0.323  0.003  0.326
tot  0.000  0.511  0.018  0.528
 
band   9 # energy    1.56724792 # occ.  2.00000000
 
ion      s      p      d    tot
  1  0.000  0.187  0.015  0.202
  2  0.000  0.323  0.003  0.326
tot  0.000  0.511  0.018  0.528
 
band  10 # energy    5.28849921 # occ.  0.00000000
 
ion      s      p      d    tot
  1  0.112  0.123  0.035  0.269
  2  0.026  0.046  0.043  0.115
tot  0.138  0.168  0.078  0.384
 
band  11 # energy    6.36393921 # occ.  0.00000000
 
ion      s      p      d    tot
  1  0.103  0.069  0.046  0.217
  2  0.050  0.096  0.036  0.182
tot  0.154  0.164  0.082  0.400
 
band  12 # energy   11.79807135 # occ.  0.00000000
 
ion      s      p      d    tot
  1  0.000  0.314  0.045  0.358
  2  0.000  0.199  0.069  0.268
tot  0.000  0.512  0.113  0.626
 
band  13 # energy   11.79807553 # occ.  0.00000000
 
ion      s      p      d    tot
  1  0.000  0.314  0.045  0.358
  2  0.000  0.199  0.069  0.268
tot  0.000  0.512  0.113  0.626
 
band  14 # energy   12.36486553 # occ.  0.00000000
 
ion      s      p      d    tot
  1  0.086  0.045  0.047  0.177
  2  0.076  0.230  0.033  0.339
tot  0.162  0.275  0.080  0.516
 
band  15 # energy   15.68415798 # occ.  0.00000000
 
ion      s      p      d    tot
  1  0.000  0.000  0.130  0.130
  2  0.000  0.000  0.219  0.219
tot  0.000  0.000  0.349  0.349
 