 vasp.5.4.1 24Jun15 (build Nov 25 2015 16:01:35) complex                        
  
 executed on         CrayXC-Intel date 2016.05.09  11:25:05
 running on   96 total cores
 distrk:  each k-point on   24 cores,    4 groups
 distr:  one band on NCORES_PER_BAND=   6 cores,    4 groups


--------------------------------------------------------------------------------------------------------


 INCAR:
 POTCAR:    PAW_PBE Cd 06Sep2000                  
 POTCAR:    PAW_PBE Te 08Apr2002                  

 ----------------------------------------------------------------------------- 
|                                                                             |
|           W    W    AA    RRRRR   N    N  II  N    N   GGGG   !!!           |
|           W    W   A  A   R    R  NN   N  II  NN   N  G    G  !!!           |
|           W    W  A    A  R    R  N N  N  II  N N  N  G       !!!           |
|           W WW W  AAAAAA  RRRRR   N  N N  II  N  N N  G  GGG   !            |
|           WW  WW  A    A  R   R   N   NN  II  N   NN  G    G                |
|           W    W  A    A  R    R  N    N  II  N    N   GGGG   !!!           |
|                                                                             |
|      You have enabled k-point parallelism (KPAR>1).                         |
|      This developmental code was originally  written by Paul Kent at ORNL,  |
|      and carefully double checked in Vienna.                                |
|      GW as well as linear response parallelism added by Martijn Marsman     |
|      and Georg Kresse.                                                      |
|      Carefully verify results versus KPAR=1.                                |
|      Report problems to Paul Kent and Vienna.                               |
|                                                                             |
 ----------------------------------------------------------------------------- 


 ----------------------------------------------------------------------------- 
|                                                                             |
|           W    W    AA    RRRRR   N    N  II  N    N   GGGG   !!!           |
|           W    W   A  A   R    R  NN   N  II  NN   N  G    G  !!!           |
|           W    W  A    A  R    R  N N  N  II  N N  N  G       !!!           |
|           W WW W  AAAAAA  RRRRR   N  N N  II  N  N N  G  GGG   !            |
|           WW  WW  A    A  R   R   N   NN  II  N   NN  G    G                |
|           W    W  A    A  R    R  N    N  II  N    N   GGGG   !!!           |
|                                                                             |
|      You have selected ISYM=2 for HF type calculation. This will symmetrize |
|      the charge density but not the exchange potential.                     |
|      I suggest to use ISYM=3 instead. This uses symmetry to obtain          |
|      the orbitals at all k-points in the Brillouine zone, but does not      |
|      apply symmetry to the Hartree potential directly.                      |
|      The resultant charge might have lower symmetry than the crystal,       |
|      but at least, Hartree and exchange are fully compatible.               |
|                                                                             |
 ----------------------------------------------------------------------------- 

 POTCAR:    PAW_PBE Cd 06Sep2000                  
   VRHFIN =Cd : s2 d10                                                          
   LEXCH  = PE                                                                  
   EATOM  =  1293.1815 eV,   95.0462 Ry                                         
                                                                                
   TITEL  = PAW_PBE Cd 06Sep2000                                                
   LULTRA =        F    use ultrasoft PP ?                                      
   IUNSCR =        1    unscreen: 0-lin 1-nonlin 2-no                           
   RPACOR =    2.000    partial core radius                                     
   POMASS =  112.411; ZVAL   =   12.000    mass and valenz                      
   RCORE  =    2.300    outmost cutoff radius                                   
   RWIGS  =    2.980; RWIGS  =    1.577    wigner-seitz radius (au A)           
   ENMAX  =  274.336; ENMIN  =  205.752 eV                                      
   RCLOC  =    2.054    cutoff for local pot                                    
   LCOR   =        T    correct aug charges                                     
   LPAW   =        T    paw PP                                                  
   EAUG   =  456.106                                                            
   DEXC   =    0.000                                                            
   RMAX   =    2.358    core radius for proj-oper                               
   RAUG   =    1.300    factor for augmentation sphere                          
   RDEP   =    2.450    radius for radial grids                                 
   RDEPT  =    1.955    core radius for aug-charge                              
                                                                                
   Atomic configuration                                                         
   12 entries                                                                   
     n  l   j            E        occ.                                          
     1  0  0.50    -26519.7817   2.0000                                         
     2  0  0.50     -3936.9612   2.0000                                         
     2  1  1.50     -3532.2230   6.0000                                         
     3  0  0.50      -733.7908   2.0000                                         
     3  1  1.50      -601.0792   6.0000                                         
     3  2  2.50      -393.5307  10.0000                                         
     4  0  0.50      -105.8977   2.0000                                         
     4  1  1.50       -66.9488   6.0000                                         
     4  2  2.50       -11.7331  10.0000                                         
     5  0  0.50        -5.6592   2.0000                                         
     5  1  0.50        -1.3606   0.0000                                         
     4  3  2.50        -1.3606   0.0000                                         
   Description                                                                  
     l       E           TYP  RCUT    TYP  RCUT                                 
     2    -11.7331479     23  2.300                                             
     2    -13.0937305     23  2.300                                             
     0     -5.6591502     23  2.300                                             
     0     -1.5561433     23  2.300                                             
     1     -2.7211652     23  2.300                                             
     1      8.3548275     23  2.300                                             
  local pseudopotential read in
  partial core-charges read in
  partial kinetic energy density read in
  atomic valenz-charges read in
  non local Contribution for L=           2  read in
    real space projection operators read in
  non local Contribution for L=           2  read in
    real space projection operators read in
  non local Contribution for L=           0  read in
    real space projection operators read in
  non local Contribution for L=           0  read in
    real space projection operators read in
  non local Contribution for L=           1  read in
    real space projection operators read in
  non local Contribution for L=           1  read in
    real space projection operators read in
    PAW grid and wavefunctions read in
 
   number of l-projection  operators is LMAX  =           6
   number of lm-projection operators is LMMAX =          18
 
 POTCAR:    PAW_PBE Te 08Apr2002                  
   VRHFIN =Te: s2p4                                                             
   LEXCH  = PE                                                                  
   EATOM  =   223.2721 eV,   16.4100 Ry                                         
                                                                                
   TITEL  = PAW_PBE Te 08Apr2002                                                
   LULTRA =        F    use ultrasoft PP ?                                      
   IUNSCR =        1    unscreen: 0-lin 1-nonlin 2-no                           
   RPACOR =    2.200    partial core radius                                     
   POMASS =  127.600; ZVAL   =    6.000    mass and valenz                      
   RCORE  =    2.300    outmost cutoff radius                                   
   RWIGS  =    2.900; RWIGS  =    1.535    wigner-seitz radius (au A)           
   ENMAX  =  174.982; ENMIN  =  131.236 eV                                      
   ICORE  =        3    local potential                                         
   LCOR   =        T    correct aug charges                                     
   LPAW   =        T    paw PP                                                  
   EAUG   =  368.792                                                            
   DEXC   =    0.000                                                            
   RMAX   =    2.345    core radius for proj-oper                               
   RAUG   =    1.300    factor for augmentation sphere                          
   RDEP   =    2.397    radius for radial grids                                 
   RDEPT  =    2.174    core radius for aug-charge                              
                                                                                
   Atomic configuration                                                         
   13 entries                                                                   
     n  l   j            E        occ.                                          
     1  0  0.50    -31621.2075   2.0000                                         
     2  0  0.50     -4848.7941   2.0000                                         
     2  1  1.50     -4352.1960   6.0000                                         
     3  0  0.50      -964.9612   2.0000                                         
     3  1  1.50      -803.6179   6.0000                                         
     3  2  2.50      -559.8710  10.0000                                         
     4  0  0.50      -164.3522   2.0000                                         
     4  1  1.50      -114.3756   6.0000                                         
     4  2  2.50       -41.6483  10.0000                                         
     5  0  0.50       -15.1072   2.0000                                         
     5  1  0.50        -5.9526   4.0000                                         
     5  2  1.50        -5.4423   0.0000                                         
     4  3  2.50        -5.4423   0.0000                                         
   Description                                                                  
     l       E           TYP  RCUT    TYP  RCUT                                 
     0    -15.1072389     23  2.300                                             
     0    -16.4678215     23  2.300                                             
     1     -5.9526306     23  2.300                                             
     1     -2.4873968     23  2.300                                             
     2     -5.4423304     23  2.300                                             
     3     -1.3605826     23  2.300                                             
  local pseudopotential read in
  partial core-charges read in
  partial kinetic energy density read in
  atomic valenz-charges read in
  non local Contribution for L=           0  read in
    real space projection operators read in
  non local Contribution for L=           0  read in
    real space projection operators read in
  non local Contribution for L=           1  read in
    real space projection operators read in
  non local Contribution for L=           1  read in
    real space projection operators read in
  non local Contribution for L=           2  read in
    real space projection operators read in
    PAW grid and wavefunctions read in
 
   number of l-projection  operators is LMAX  =           5
   number of lm-projection operators is LMMAX =          13
 
  PAW_PBE Cd 06Sep2000                  :
 energy of atom  1       EATOM=-1293.1815
 kinetic energy error for atom=    0.0063 (will be added to EATOM!!)
  PAW_PBE Te 08Apr2002                  :
 energy of atom  2       EATOM= -223.2721
 kinetic energy error for atom=    0.0007 (will be added to EATOM!!)
 
 
 POSCAR: CdTe (ICSD, 295K, Rabadanov 2001)       
  positions in direct lattice
  velocities in cartesian coordinates
 exchange correlation table for  LEXCH =        8
   RHO(1)=    0.500       N(1)  =     2000
   RHO(2)=  100.500       N(2)  =     4000
 


--------------------------------------------------------------------------------------------------------


 ion  position               nearest neighbor table
   1  0.000  0.000  0.000-   2 2.81   2 2.81   2 2.81   2 2.81
   2  0.250  0.250  0.250-   1 2.81   1 2.81   1 2.81   1 2.81
 
  LATTYP: Found a face centered cubic cell.
 ALAT       =     6.4827000000
  
  Lattice vectors:
  
 A1 = (   3.2413500000,   3.2413500000,   0.0000000000)
 A2 = (   3.2413500000,   0.0000000000,  -3.2413500000)
 A3 = (   0.0000000000,   3.2413500000,  -3.2413500000)


Analysis of symmetry for initial positions (statically):
=====================================================================
 Subroutine PRICEL returns:
 Original cell was already a primitive cell.
 

 Routine SETGRP: Setting up the symmetry group for a 
 face centered cubic supercell.


 Subroutine GETGRP returns: Found 24 space group operations
 (whereof 24 operations were pure point group operations)
 out of a pool of 48 trial point group operations.


The static configuration has the point symmetry T_d .


Analysis of symmetry for dynamics (positions and initial velocities):
=====================================================================
 Subroutine PRICEL returns:
 Original cell was already a primitive cell.
 

 Routine SETGRP: Setting up the symmetry group for a 
 face centered cubic supercell.


 Subroutine GETGRP returns: Found 24 space group operations
 (whereof 24 operations were pure point group operations)
 out of a pool of 48 trial point group operations.


The dynamic configuration has the point symmetry T_d .


 Subroutine INISYM returns: Found 24 space group operations
 (whereof 24 operations are pure point group operations),
 and found     1 'primitive' translations

 
 
 KPOINTS: Automatically generated mesh SCF: 16 ste
  k-points in reciprocal lattice
Space group operators:
 irot       det(A)        alpha          n_x          n_y          n_z        tau_x        tau_y        tau_z
    1     1.000000     0.000000     1.000000     0.000000     0.000000     0.000000     0.000000     0.000000
    2     1.000000   120.000000    -0.577350    -0.577350     0.577350     0.000000     0.000000     0.000000
    3     1.000000   120.000000     0.577350     0.577350    -0.577350     0.000000     0.000000     0.000000
    4    -1.000000    90.000000    -1.000000     0.000000     0.000000     0.000000     0.000000     0.000000
    5    -1.000000   180.000000     0.707107     0.707107     0.000000     0.000000     0.000000     0.000000
    6    -1.000000    90.000000     0.000000     1.000000     0.000000     0.000000     0.000000     0.000000
    7     1.000000   180.000000     1.000000     0.000000     0.000000     0.000000     0.000000     0.000000
    8     1.000000   120.000000     0.577350     0.577350     0.577350     0.000000     0.000000     0.000000
    9     1.000000   120.000000    -0.577350     0.577350     0.577350     0.000000     0.000000     0.000000
   10    -1.000000    90.000000     1.000000     0.000000     0.000000     0.000000     0.000000     0.000000
   11    -1.000000    90.000000     0.000000     0.000000     1.000000     0.000000     0.000000     0.000000
   12    -1.000000   180.000000     0.707107     0.000000    -0.707107     0.000000     0.000000     0.000000
   13     1.000000   120.000000     0.577350    -0.577350    -0.577350     0.000000     0.000000     0.000000
   14     1.000000   120.000000     0.577350    -0.577350     0.577350     0.000000     0.000000     0.000000
   15     1.000000   180.000000     0.000000     0.000000     1.000000     0.000000     0.000000     0.000000
   16    -1.000000    90.000000     0.000000    -1.000000     0.000000     0.000000     0.000000     0.000000
   17    -1.000000   180.000000     0.000000    -0.707107     0.707107     0.000000     0.000000     0.000000
   18    -1.000000    90.000000     0.000000     0.000000    -1.000000     0.000000     0.000000     0.000000
   19     1.000000   120.000000    -0.577350    -0.577350    -0.577350     0.000000     0.000000     0.000000
   20     1.000000   180.000000     0.000000     1.000000     0.000000     0.000000     0.000000     0.000000
   21     1.000000   120.000000    -0.577350     0.577350    -0.577350     0.000000     0.000000     0.000000
   22    -1.000000   180.000000     0.707107    -0.707107     0.000000     0.000000     0.000000     0.000000
   23    -1.000000   180.000000     0.000000     0.707107     0.707107     0.000000     0.000000     0.000000
   24    -1.000000   180.000000     0.707107     0.000000     0.707107     0.000000     0.000000     0.000000

 ----------------------------------------------------------------------------- 
|                                                                             |
|           W    W    AA    RRRRR   N    N  II  N    N   GGGG   !!!           |
|           W    W   A  A   R    R  NN   N  II  NN   N  G    G  !!!           |
|           W    W  A    A  R    R  N N  N  II  N N  N  G       !!!           |
|           W WW W  AAAAAA  RRRRR   N  N N  II  N  N N  G  GGG   !            |
|           WW  WW  A    A  R   R   N   NN  II  N   NN  G    G                |
|           W    W  A    A  R    R  N    N  II  N    N   GGGG   !!!           |
|                                                                             |
|      Your generating k-point grid is not commensurate to the symmetry       |
|      of the lattice.  This can cause   slow convergence with respect        |
|      to k-points for HF type calculations                                   |
|      suggested SOLUTIONS:                                                   |
|       ) if not already the case, use automatic k-point generation           |
|       ) shift your grid to Gamma (G) (e.g. required for hex or fcc lattice) |
|                                                                             |
 ----------------------------------------------------------------------------- 

 
 Subroutine IBZKPT_HF returns following result:
 ==============================================
 
 Found   1212 k-points in 1st BZ
 the following   1212 k-points will be used (e.g. in the exchange kernel)
 Following reciprocal coordinates:   # in IRBZ
  0.000000  0.000000  0.000000    0.00462963   1 t-inv F
  0.166667  0.000000  0.000000    0.00462963   2 t-inv F
  0.333333  0.000000  0.000000    0.00462963   3 t-inv F
  0.500000  0.000000  0.000000    0.00462963   4 t-inv F
  0.166667  0.166667  0.000000    0.00462963   5 t-inv F
  0.333333  0.166667  0.000000    0.00462963   6 t-inv F
  0.500000  0.166667  0.000000    0.00462963   7 t-inv F
 -0.333333  0.166667  0.000000    0.00462963   8 t-inv F
 -0.166667  0.166667  0.000000    0.00462963   9 t-inv F
  0.333333  0.333333  0.000000    0.00462963  10 t-inv F
  0.500000  0.333333  0.000000    0.00462963  11 t-inv F
 -0.333333  0.333333  0.000000    0.00462963  12 t-inv F
  0.500000  0.500000  0.000000    0.00462963  13 t-inv F
  0.500000  0.333333  0.166667    0.00462963  14 t-inv F
 -0.333333  0.333333  0.166667    0.00462963  15 t-inv F
 -0.333333  0.500000  0.166667    0.00462963  16 t-inv F
  0.000000  0.000000  0.000000    0.00000000  17 t-inv F
  0.002101  0.000000  0.002101    0.00000000  18 t-inv F
  0.004202  0.000000  0.004202    0.00000000  19 t-inv F
  0.006303  0.000000  0.006303    0.00000000  20 t-inv F
  0.008403  0.000000  0.008403    0.00000000  21 t-inv F
  0.010504  0.000000  0.010504    0.00000000  22 t-inv F
  0.012605  0.000000  0.012605    0.00000000  23 t-inv F
  0.014706  0.000000  0.014706    0.00000000  24 t-inv F
  0.016807  0.000000  0.016807    0.00000000  25 t-inv F
  0.018908  0.000000  0.018908    0.00000000  26 t-inv F
  0.021008  0.000000  0.021008    0.00000000  27 t-inv F
  0.023109  0.000000  0.023109    0.00000000  28 t-inv F
  0.025210  0.000000  0.025210    0.00000000  29 t-inv F
  0.027311  0.000000  0.027311    0.00000000  30 t-inv F
  0.029412  0.000000  0.029412    0.00000000  31 t-inv F
  0.031513  0.000000  0.031513    0.00000000  32 t-inv F
  0.033613  0.000000  0.033613    0.00000000  33 t-inv F
  0.035714  0.000000  0.035714    0.00000000  34 t-inv F
  0.037815  0.000000  0.037815    0.00000000  35 t-inv F
  0.039916  0.000000  0.039916    0.00000000  36 t-inv F
  0.042017  0.000000  0.042017    0.00000000  37 t-inv F
  0.044118  0.000000  0.044118    0.00000000  38 t-inv F
  0.046218  0.000000  0.046218    0.00000000  39 t-inv F
  0.048319  0.000000  0.048319    0.00000000  40 t-inv F
  0.050420  0.000000  0.050420    0.00000000  41 t-inv F
  0.052521  0.000000  0.052521    0.00000000  42 t-inv F
  0.054622  0.000000  0.054622    0.00000000  43 t-inv F
  0.056723  0.000000  0.056723    0.00000000  44 t-inv F
  0.058824  0.000000  0.058824    0.00000000  45 t-inv F
  0.060924  0.000000  0.060924    0.00000000  46 t-inv F
  0.063025  0.000000  0.063025    0.00000000  47 t-inv F
  0.065126  0.000000  0.065126    0.00000000  48 t-inv F
  0.067227  0.000000  0.067227    0.00000000  49 t-inv F
  0.069328  0.000000  0.069328    0.00000000  50 t-inv F
  0.071429  0.000000  0.071429    0.00000000  51 t-inv F
  0.073529  0.000000  0.073529    0.00000000  52 t-inv F
  0.075630  0.000000  0.075630    0.00000000  53 t-inv F
  0.077731  0.000000  0.077731    0.00000000  54 t-inv F
  0.079832  0.000000  0.079832    0.00000000  55 t-inv F
  0.081933  0.000000  0.081933    0.00000000  56 t-inv F
  0.084034  0.000000  0.084034    0.00000000  57 t-inv F
  0.086134  0.000000  0.086134    0.00000000  58 t-inv F
  0.088235  0.000000  0.088235    0.00000000  59 t-inv F
  0.090336  0.000000  0.090336    0.00000000  60 t-inv F
  0.092437  0.000000  0.092437    0.00000000  61 t-inv F
  0.094538  0.000000  0.094538    0.00000000  62 t-inv F
  0.096639  0.000000  0.096639    0.00000000  63 t-inv F
  0.098739  0.000000  0.098739    0.00000000  64 t-inv F
  0.100840  0.000000  0.100840    0.00000000  65 t-inv F
  0.102941  0.000000  0.102941    0.00000000  66 t-inv F
  0.105042  0.000000  0.105042    0.00000000  67 t-inv F
  0.107143  0.000000  0.107143    0.00000000  68 t-inv F
  0.109244  0.000000  0.109244    0.00000000  69 t-inv F
  0.111345  0.000000  0.111345    0.00000000  70 t-inv F
  0.113445  0.000000  0.113445    0.00000000  71 t-inv F
  0.115546  0.000000  0.115546    0.00000000  72 t-inv F
  0.117647  0.000000  0.117647    0.00000000  73 t-inv F
  0.119748  0.000000  0.119748    0.00000000  74 t-inv F
  0.121849  0.000000  0.121849    0.00000000  75 t-inv F
  0.123950  0.000000  0.123950    0.00000000  76 t-inv F
  0.126050  0.000000  0.126050    0.00000000  77 t-inv F
  0.128151  0.000000  0.128151    0.00000000  78 t-inv F
  0.130252  0.000000  0.130252    0.00000000  79 t-inv F
  0.132353  0.000000  0.132353    0.00000000  80 t-inv F
  0.134454  0.000000  0.134454    0.00000000  81 t-inv F
  0.136555  0.000000  0.136555    0.00000000  82 t-inv F
  0.138655  0.000000  0.138655    0.00000000  83 t-inv F
  0.140756  0.000000  0.140756    0.00000000  84 t-inv F
  0.142857  0.000000  0.142857    0.00000000  85 t-inv F
  0.144958  0.000000  0.144958    0.00000000  86 t-inv F
  0.147059  0.000000  0.147059    0.00000000  87 t-inv F
  0.149160  0.000000  0.149160    0.00000000  88 t-inv F
  0.151260  0.000000  0.151260    0.00000000  89 t-inv F
  0.153361  0.000000  0.153361    0.00000000  90 t-inv F
  0.155462  0.000000  0.155462    0.00000000  91 t-inv F
  0.157563  0.000000  0.157563    0.00000000  92 t-inv F
  0.159664  0.000000  0.159664    0.00000000  93 t-inv F
  0.161765  0.000000  0.161765    0.00000000  94 t-inv F
  0.163866  0.000000  0.163866    0.00000000  95 t-inv F
  0.165966  0.000000  0.165966    0.00000000  96 t-inv F
  0.168067  0.000000  0.168067    0.00000000  97 t-inv F
  0.170168  0.000000  0.170168    0.00000000  98 t-inv F
  0.172269  0.000000  0.172269    0.00000000  99 t-inv F
  0.174370  0.000000  0.174370    0.00000000 100 t-inv F
  0.176471  0.000000  0.176471    0.00000000 101 t-inv F
  0.178571  0.000000  0.178571    0.00000000 102 t-inv F
  0.180672  0.000000  0.180672    0.00000000 103 t-inv F
  0.182773  0.000000  0.182773    0.00000000 104 t-inv F
  0.184874  0.000000  0.184874    0.00000000 105 t-inv F
  0.186975  0.000000  0.186975    0.00000000 106 t-inv F
  0.189076  0.000000  0.189076    0.00000000 107 t-inv F
  0.191176  0.000000  0.191176    0.00000000 108 t-inv F
  0.193277  0.000000  0.193277    0.00000000 109 t-inv F
  0.195378  0.000000  0.195378    0.00000000 110 t-inv F
  0.197479  0.000000  0.197479    0.00000000 111 t-inv F
  0.199580  0.000000  0.199580    0.00000000 112 t-inv F
  0.201681  0.000000  0.201681    0.00000000 113 t-inv F
  0.203782  0.000000  0.203782    0.00000000 114 t-inv F
  0.205882  0.000000  0.205882    0.00000000 115 t-inv F
  0.207983  0.000000  0.207983    0.00000000 116 t-inv F
  0.210084  0.000000  0.210084    0.00000000 117 t-inv F
  0.212185  0.000000  0.212185    0.00000000 118 t-inv F
  0.214286  0.000000  0.214286    0.00000000 119 t-inv F
  0.216387  0.000000  0.216387    0.00000000 120 t-inv F
  0.218487  0.000000  0.218487    0.00000000 121 t-inv F
  0.220588  0.000000  0.220588    0.00000000 122 t-inv F
  0.222689  0.000000  0.222689    0.00000000 123 t-inv F
  0.224790  0.000000  0.224790    0.00000000 124 t-inv F
  0.226891  0.000000  0.226891    0.00000000 125 t-inv F
  0.228992  0.000000  0.228992    0.00000000 126 t-inv F
  0.231092  0.000000  0.231092    0.00000000 127 t-inv F
  0.233193  0.000000  0.233193    0.00000000 128 t-inv F
  0.235294  0.000000  0.235294    0.00000000 129 t-inv F
  0.237395  0.000000  0.237395    0.00000000 130 t-inv F
  0.239496  0.000000  0.239496    0.00000000 131 t-inv F
  0.241597  0.000000  0.241597    0.00000000 132 t-inv F
  0.243697  0.000000  0.243697    0.00000000 133 t-inv F
  0.245798  0.000000  0.245798    0.00000000 134 t-inv F
  0.247899  0.000000  0.247899    0.00000000 135 t-inv F
  0.250000  0.000000  0.250000    0.00000000 136 t-inv F
  0.252101  0.000000  0.252101    0.00000000 137 t-inv F
  0.254202  0.000000  0.254202    0.00000000 138 t-inv F
  0.256303  0.000000  0.256303    0.00000000 139 t-inv F
  0.258403  0.000000  0.258403    0.00000000 140 t-inv F
  0.260504  0.000000  0.260504    0.00000000 141 t-inv F
  0.262605  0.000000  0.262605    0.00000000 142 t-inv F
  0.264706  0.000000  0.264706    0.00000000 143 t-inv F
  0.266807  0.000000  0.266807    0.00000000 144 t-inv F
  0.268908  0.000000  0.268908    0.00000000 145 t-inv F
  0.271008  0.000000  0.271008    0.00000000 146 t-inv F
  0.273109  0.000000  0.273109    0.00000000 147 t-inv F
  0.275210  0.000000  0.275210    0.00000000 148 t-inv F
  0.277311  0.000000  0.277311    0.00000000 149 t-inv F
  0.279412  0.000000  0.279412    0.00000000 150 t-inv F
  0.281513  0.000000  0.281513    0.00000000 151 t-inv F
  0.283613  0.000000  0.283613    0.00000000 152 t-inv F
  0.285714  0.000000  0.285714    0.00000000 153 t-inv F
  0.287815  0.000000  0.287815    0.00000000 154 t-inv F
  0.289916  0.000000  0.289916    0.00000000 155 t-inv F
  0.292017  0.000000  0.292017    0.00000000 156 t-inv F
  0.294118  0.000000  0.294118    0.00000000 157 t-inv F
  0.296218  0.000000  0.296218    0.00000000 158 t-inv F
  0.298319  0.000000  0.298319    0.00000000 159 t-inv F
  0.300420  0.000000  0.300420    0.00000000 160 t-inv F
  0.302521  0.000000  0.302521    0.00000000 161 t-inv F
  0.304622  0.000000  0.304622    0.00000000 162 t-inv F
  0.306723  0.000000  0.306723    0.00000000 163 t-inv F
  0.308824  0.000000  0.308824    0.00000000 164 t-inv F
  0.310924  0.000000  0.310924    0.00000000 165 t-inv F
  0.313025  0.000000  0.313025    0.00000000 166 t-inv F
  0.315126  0.000000  0.315126    0.00000000 167 t-inv F
  0.317227  0.000000  0.317227    0.00000000 168 t-inv F
  0.319328  0.000000  0.319328    0.00000000 169 t-inv F
  0.321429  0.000000  0.321429    0.00000000 170 t-inv F
  0.323529  0.000000  0.323529    0.00000000 171 t-inv F
  0.325630  0.000000  0.325630    0.00000000 172 t-inv F
  0.327731  0.000000  0.327731    0.00000000 173 t-inv F
  0.329832  0.000000  0.329832    0.00000000 174 t-inv F
  0.331933  0.000000  0.331933    0.00000000 175 t-inv F
  0.334034  0.000000  0.334034    0.00000000 176 t-inv F
  0.336134  0.000000  0.336134    0.00000000 177 t-inv F
  0.338235  0.000000  0.338235    0.00000000 178 t-inv F
  0.340336  0.000000  0.340336    0.00000000 179 t-inv F
  0.342437  0.000000  0.342437    0.00000000 180 t-inv F
  0.344538  0.000000  0.344538    0.00000000 181 t-inv F
  0.346639  0.000000  0.346639    0.00000000 182 t-inv F
  0.348739  0.000000  0.348739    0.00000000 183 t-inv F
  0.350840  0.000000  0.350840    0.00000000 184 t-inv F
  0.352941  0.000000  0.352941    0.00000000 185 t-inv F
  0.355042  0.000000  0.355042    0.00000000 186 t-inv F
  0.357143  0.000000  0.357143    0.00000000 187 t-inv F
  0.359244  0.000000  0.359244    0.00000000 188 t-inv F
  0.361345  0.000000  0.361345    0.00000000 189 t-inv F
  0.363445  0.000000  0.363445    0.00000000 190 t-inv F
  0.365546  0.000000  0.365546    0.00000000 191 t-inv F
  0.367647  0.000000  0.367647    0.00000000 192 t-inv F
  0.369748  0.000000  0.369748    0.00000000 193 t-inv F
  0.371849  0.000000  0.371849    0.00000000 194 t-inv F
  0.373950  0.000000  0.373950    0.00000000 195 t-inv F
  0.376050  0.000000  0.376050    0.00000000 196 t-inv F
  0.378151  0.000000  0.378151    0.00000000 197 t-inv F
  0.380252  0.000000  0.380252    0.00000000 198 t-inv F
  0.382353  0.000000  0.382353    0.00000000 199 t-inv F
  0.384454  0.000000  0.384454    0.00000000 200 t-inv F
  0.386555  0.000000  0.386555    0.00000000 201 t-inv F
  0.388655  0.000000  0.388655    0.00000000 202 t-inv F
  0.390756  0.000000  0.390756    0.00000000 203 t-inv F
  0.392857  0.000000  0.392857    0.00000000 204 t-inv F
  0.394958  0.000000  0.394958    0.00000000 205 t-inv F
  0.397059  0.000000  0.397059    0.00000000 206 t-inv F
  0.399160  0.000000  0.399160    0.00000000 207 t-inv F
  0.401261  0.000000  0.401261    0.00000000 208 t-inv F
  0.403361  0.000000  0.403361    0.00000000 209 t-inv F
  0.405462  0.000000  0.405462    0.00000000 210 t-inv F
  0.407563  0.000000  0.407563    0.00000000 211 t-inv F
  0.409664  0.000000  0.409664    0.00000000 212 t-inv F
  0.411765  0.000000  0.411765    0.00000000 213 t-inv F
  0.413866  0.000000  0.413866    0.00000000 214 t-inv F
  0.415966  0.000000  0.415966    0.00000000 215 t-inv F
  0.418067  0.000000  0.418067    0.00000000 216 t-inv F
  0.420168  0.000000  0.420168    0.00000000 217 t-inv F
  0.422269  0.000000  0.422269    0.00000000 218 t-inv F
  0.424370  0.000000  0.424370    0.00000000 219 t-inv F
  0.426471  0.000000  0.426471    0.00000000 220 t-inv F
  0.428571  0.000000  0.428571    0.00000000 221 t-inv F
  0.430672  0.000000  0.430672    0.00000000 222 t-inv F
  0.432773  0.000000  0.432773    0.00000000 223 t-inv F
  0.434874  0.000000  0.434874    0.00000000 224 t-inv F
  0.436975  0.000000  0.436975    0.00000000 225 t-inv F
  0.439076  0.000000  0.439076    0.00000000 226 t-inv F
  0.441176  0.000000  0.441176    0.00000000 227 t-inv F
  0.443277  0.000000  0.443277    0.00000000 228 t-inv F
  0.445378  0.000000  0.445378    0.00000000 229 t-inv F
  0.447479  0.000000  0.447479    0.00000000 230 t-inv F
  0.449580  0.000000  0.449580    0.00000000 231 t-inv F
  0.451681  0.000000  0.451681    0.00000000 232 t-inv F
  0.453782  0.000000  0.453782    0.00000000 233 t-inv F
  0.455882  0.000000  0.455882    0.00000000 234 t-inv F
  0.457983  0.000000  0.457983    0.00000000 235 t-inv F
  0.460084  0.000000  0.460084    0.00000000 236 t-inv F
  0.462185  0.000000  0.462185    0.00000000 237 t-inv F
  0.464286  0.000000  0.464286    0.00000000 238 t-inv F
  0.466387  0.000000  0.466387    0.00000000 239 t-inv F
  0.468487  0.000000  0.468487    0.00000000 240 t-inv F
  0.470588  0.000000  0.470588    0.00000000 241 t-inv F
  0.472689  0.000000  0.472689    0.00000000 242 t-inv F
  0.474790  0.000000  0.474790    0.00000000 243 t-inv F
  0.476891  0.000000  0.476891    0.00000000 244 t-inv F
  0.478992  0.000000  0.478992    0.00000000 245 t-inv F
  0.481092  0.000000  0.481092    0.00000000 246 t-inv F
  0.483193  0.000000  0.483193    0.00000000 247 t-inv F
  0.485294  0.000000  0.485294    0.00000000 248 t-inv F
  0.487395  0.000000  0.487395    0.00000000 249 t-inv F
  0.489496  0.000000  0.489496    0.00000000 250 t-inv F
  0.491597  0.000000  0.491597    0.00000000 251 t-inv F
  0.493697  0.000000  0.493697    0.00000000 252 t-inv F
  0.495798  0.000000  0.495798    0.00000000 253 t-inv F
  0.497899  0.000000  0.497899    0.00000000 254 t-inv F
  0.500000  0.000000  0.500000    0.00000000 255 t-inv F
  0.499204  0.002389  0.501592    0.00000000 256 t-inv F
  0.498408  0.004777  0.503185    0.00000000 257 t-inv F
  0.497611  0.007166  0.504777    0.00000000 258 t-inv F
  0.496815  0.009554  0.506369    0.00000000 259 t-inv F
  0.496019  0.011943  0.507962    0.00000000 260 t-inv F
  0.495223  0.014331  0.509554    0.00000000 261 t-inv F
  0.494427  0.016720  0.511146    0.00000000 262 t-inv F
  0.493631  0.019108  0.512739    0.00000000 263 t-inv F
  0.492834  0.021497  0.514331    0.00000000 264 t-inv F
  0.492038  0.023885  0.515924    0.00000000 265 t-inv F
  0.491242  0.026274  0.517516    0.00000000 266 t-inv F
  0.490446  0.028662  0.519108    0.00000000 267 t-inv F
  0.489650  0.031051  0.520701    0.00000000 268 t-inv F
  0.488854  0.033439  0.522293    0.00000000 269 t-inv F
  0.488057  0.035828  0.523885    0.00000000 270 t-inv F
  0.487261  0.038217  0.525478    0.00000000 271 t-inv F
  0.486465  0.040605  0.527070    0.00000000 272 t-inv F
  0.485669  0.042994  0.528662    0.00000000 273 t-inv F
  0.484873  0.045382  0.530255    0.00000000 274 t-inv F
  0.484076  0.047771  0.531847    0.00000000 275 t-inv F
  0.483280  0.050159  0.533440    0.00000000 276 t-inv F
  0.482484  0.052548  0.535032    0.00000000 277 t-inv F
  0.481688  0.054936  0.536624    0.00000000 278 t-inv F
  0.480892  0.057325  0.538217    0.00000000 279 t-inv F
  0.480096  0.059713  0.539809    0.00000000 280 t-inv F
  0.479299  0.062102  0.541401    0.00000000 281 t-inv F
  0.478503  0.064490  0.542994    0.00000000 282 t-inv F
  0.477707  0.066879  0.544586    0.00000000 283 t-inv F
  0.476911  0.069268  0.546178    0.00000000 284 t-inv F
  0.476115  0.071656  0.547771    0.00000000 285 t-inv F
  0.475318  0.074045  0.549363    0.00000000 286 t-inv F
  0.474522  0.076433  0.550955    0.00000000 287 t-inv F
  0.473726  0.078822  0.552548    0.00000000 288 t-inv F
  0.472930  0.081210  0.554140    0.00000000 289 t-inv F
  0.472134  0.083599  0.555732    0.00000000 290 t-inv F
  0.471338  0.085987  0.557325    0.00000000 291 t-inv F
  0.470541  0.088376  0.558917    0.00000000 292 t-inv F
  0.469745  0.090764  0.560510    0.00000000 293 t-inv F
  0.468949  0.093153  0.562102    0.00000000 294 t-inv F
  0.468153  0.095541  0.563694    0.00000000 295 t-inv F
  0.467357  0.097930  0.565287    0.00000000 296 t-inv F
  0.466561  0.100318  0.566879    0.00000000 297 t-inv F
  0.465764  0.102707  0.568471    0.00000000 298 t-inv F
  0.464968  0.105096  0.570064    0.00000000 299 t-inv F
  0.464172  0.107484  0.571656    0.00000000 300 t-inv F
  0.463376  0.109873  0.573248    0.00000000 301 t-inv F
  0.462580  0.112261  0.574841    0.00000000 302 t-inv F
  0.461783  0.114650  0.576433    0.00000000 303 t-inv F
  0.460987  0.117038  0.578025    0.00000000 304 t-inv F
  0.460191  0.119427  0.579618    0.00000000 305 t-inv F
  0.459395  0.121815  0.581210    0.00000000 306 t-inv F
  0.458599  0.124204  0.582803    0.00000000 307 t-inv F
  0.457803  0.126592  0.584395    0.00000000 308 t-inv F
  0.457006  0.128981  0.585987    0.00000000 309 t-inv F
  0.456210  0.131369  0.587580    0.00000000 310 t-inv F
  0.455414  0.133758  0.589172    0.00000000 311 t-inv F
  0.454618  0.136146  0.590764    0.00000000 312 t-inv F
  0.453822  0.138535  0.592357    0.00000000 313 t-inv F
  0.453025  0.140924  0.593949    0.00000000 314 t-inv F
  0.452229  0.143312  0.595541    0.00000000 315 t-inv F
  0.451433  0.145701  0.597134    0.00000000 316 t-inv F
  0.450637  0.148089  0.598726    0.00000000 317 t-inv F
  0.449841  0.150478  0.600318    0.00000000 318 t-inv F
  0.449045  0.152866  0.601911    0.00000000 319 t-inv F
  0.448248  0.155255  0.603503    0.00000000 320 t-inv F
  0.447452  0.157643  0.605096    0.00000000 321 t-inv F
  0.446656  0.160032  0.606688    0.00000000 322 t-inv F
  0.445860  0.162420  0.608280    0.00000000 323 t-inv F
  0.445064  0.164809  0.609873    0.00000000 324 t-inv F
  0.444268  0.167197  0.611465    0.00000000 325 t-inv F
  0.443471  0.169586  0.613057    0.00000000 326 t-inv F
  0.442675  0.171975  0.614650    0.00000000 327 t-inv F
  0.441879  0.174363  0.616242    0.00000000 328 t-inv F
  0.441083  0.176752  0.617834    0.00000000 329 t-inv F
  0.440287  0.179140  0.619427    0.00000000 330 t-inv F
  0.439490  0.181529  0.621019    0.00000000 331 t-inv F
  0.438694  0.183917  0.622611    0.00000000 332 t-inv F
  0.437898  0.186306  0.624204    0.00000000 333 t-inv F
  0.437102  0.188694  0.625796    0.00000000 334 t-inv F
  0.436306  0.191083  0.627389    0.00000000 335 t-inv F
  0.435510  0.193471  0.628981    0.00000000 336 t-inv F
  0.434713  0.195860  0.630573    0.00000000 337 t-inv F
  0.433917  0.198248  0.632166    0.00000000 338 t-inv F
  0.433121  0.200637  0.633758    0.00000000 339 t-inv F
  0.432325  0.203025  0.635350    0.00000000 340 t-inv F
  0.431529  0.205414  0.636943    0.00000000 341 t-inv F
  0.430732  0.207803  0.638535    0.00000000 342 t-inv F
  0.429936  0.210191  0.640127    0.00000000 343 t-inv F
  0.429140  0.212580  0.641720    0.00000000 344 t-inv F
  0.428344  0.214968  0.643312    0.00000000 345 t-inv F
  0.427548  0.217357  0.644904    0.00000000 346 t-inv F
  0.426752  0.219745  0.646497    0.00000000 347 t-inv F
  0.425955  0.222134  0.648089    0.00000000 348 t-inv F
  0.425159  0.224522  0.649682    0.00000000 349 t-inv F
  0.424363  0.226911  0.651274    0.00000000 350 t-inv F
  0.423567  0.229299  0.652866    0.00000000 351 t-inv F
  0.422771  0.231688  0.654459    0.00000000 352 t-inv F
  0.421975  0.234076  0.656051    0.00000000 353 t-inv F
  0.421178  0.236465  0.657643    0.00000000 354 t-inv F
  0.420382  0.238853  0.659236    0.00000000 355 t-inv F
  0.419586  0.241242  0.660828    0.00000000 356 t-inv F
  0.418790  0.243631  0.662420    0.00000000 357 t-inv F
  0.417994  0.246019  0.664013    0.00000000 358 t-inv F
  0.417197  0.248408  0.665605    0.00000000 359 t-inv F
  0.416401  0.250796  0.667197    0.00000000 360 t-inv F
  0.415605  0.253185  0.668790    0.00000000 361 t-inv F
  0.414809  0.255573  0.670382    0.00000000 362 t-inv F
  0.414013  0.257962  0.671975    0.00000000 363 t-inv F
  0.413217  0.260350  0.673567    0.00000000 364 t-inv F
  0.412420  0.262739  0.675159    0.00000000 365 t-inv F
  0.411624  0.265127  0.676752    0.00000000 366 t-inv F
  0.410828  0.267516  0.678344    0.00000000 367 t-inv F
  0.410032  0.269904  0.679936    0.00000000 368 t-inv F
  0.409236  0.272293  0.681529    0.00000000 369 t-inv F
  0.408439  0.274682  0.683121    0.00000000 370 t-inv F
  0.407643  0.277070  0.684713    0.00000000 371 t-inv F
  0.406847  0.279459  0.686306    0.00000000 372 t-inv F
  0.406051  0.281847  0.687898    0.00000000 373 t-inv F
  0.405255  0.284236  0.689490    0.00000000 374 t-inv F
  0.404459  0.286624  0.691083    0.00000000 375 t-inv F
  0.403662  0.289013  0.692675    0.00000000 376 t-inv F
  0.402866  0.291401  0.694268    0.00000000 377 t-inv F
  0.402070  0.293790  0.695860    0.00000000 378 t-inv F
  0.401274  0.296178  0.697452    0.00000000 379 t-inv F
  0.400478  0.298567  0.699045    0.00000000 380 t-inv F
  0.399682  0.300955  0.700637    0.00000000 381 t-inv F
  0.398885  0.303344  0.702229    0.00000000 382 t-inv F
  0.398089  0.305732  0.703822    0.00000000 383 t-inv F
  0.397293  0.308121  0.705414    0.00000000 384 t-inv F
  0.396497  0.310510  0.707006    0.00000000 385 t-inv F
  0.395701  0.312898  0.708599    0.00000000 386 t-inv F
  0.394904  0.315287  0.710191    0.00000000 387 t-inv F
  0.394108  0.317675  0.711783    0.00000000 388 t-inv F
  0.393312  0.320064  0.713376    0.00000000 389 t-inv F
  0.392516  0.322452  0.714968    0.00000000 390 t-inv F
  0.391720  0.324841  0.716560    0.00000000 391 t-inv F
  0.390924  0.327229  0.718153    0.00000000 392 t-inv F
  0.390127  0.329618  0.719745    0.00000000 393 t-inv F
  0.389331  0.332006  0.721338    0.00000000 394 t-inv F
  0.388535  0.334395  0.722930    0.00000000 395 t-inv F
  0.387739  0.336783  0.724522    0.00000000 396 t-inv F
  0.386943  0.339172  0.726115    0.00000000 397 t-inv F
  0.386146  0.341560  0.727707    0.00000000 398 t-inv F
  0.385350  0.343949  0.729299    0.00000000 399 t-inv F
  0.384554  0.346338  0.730892    0.00000000 400 t-inv F
  0.383758  0.348726  0.732484    0.00000000 401 t-inv F
  0.382962  0.351115  0.734076    0.00000000 402 t-inv F
  0.382166  0.353503  0.735669    0.00000000 403 t-inv F
  0.381369  0.355892  0.737261    0.00000000 404 t-inv F
  0.380573  0.358280  0.738854    0.00000000 405 t-inv F
  0.379777  0.360669  0.740446    0.00000000 406 t-inv F
  0.378981  0.363057  0.742038    0.00000000 407 t-inv F
  0.378185  0.365446  0.743631    0.00000000 408 t-inv F
  0.377389  0.367834  0.745223    0.00000000 409 t-inv F
  0.376592  0.370223  0.746815    0.00000000 410 t-inv F
  0.375796  0.372611  0.748408    0.00000000 411 t-inv F
  0.375000  0.375000  0.750000    0.00000000 412 t-inv F
  0.373786  0.373786  0.747573    0.00000000 413 t-inv F
  0.372573  0.372573  0.745146    0.00000000 414 t-inv F
  0.371359  0.371359  0.742718    0.00000000 415 t-inv F
  0.370146  0.370146  0.740291    0.00000000 416 t-inv F
  0.368932  0.368932  0.737864    0.00000000 417 t-inv F
  0.367718  0.367718  0.735437    0.00000000 418 t-inv F
  0.366505  0.366505  0.733010    0.00000000 419 t-inv F
  0.365291  0.365291  0.730583    0.00000000 420 t-inv F
  0.364078  0.364078  0.728155    0.00000000 421 t-inv F
  0.362864  0.362864  0.725728    0.00000000 422 t-inv F
  0.361650  0.361650  0.723301    0.00000000 423 t-inv F
  0.360437  0.360437  0.720874    0.00000000 424 t-inv F
  0.359223  0.359223  0.718447    0.00000000 425 t-inv F
  0.358010  0.358010  0.716019    0.00000000 426 t-inv F
  0.356796  0.356796  0.713592    0.00000000 427 t-inv F
  0.355583  0.355583  0.711165    0.00000000 428 t-inv F
  0.354369  0.354369  0.708738    0.00000000 429 t-inv F
  0.353155  0.353155  0.706311    0.00000000 430 t-inv F
  0.351942  0.351942  0.703883    0.00000000 431 t-inv F
  0.350728  0.350728  0.701456    0.00000000 432 t-inv F
  0.349515  0.349515  0.699029    0.00000000 433 t-inv F
  0.348301  0.348301  0.696602    0.00000000 434 t-inv F
  0.347087  0.347087  0.694175    0.00000000 435 t-inv F
  0.345874  0.345874  0.691748    0.00000000 436 t-inv F
  0.344660  0.344660  0.689320    0.00000000 437 t-inv F
  0.343447  0.343447  0.686893    0.00000000 438 t-inv F
  0.342233  0.342233  0.684466    0.00000000 439 t-inv F
  0.341019  0.341019  0.682039    0.00000000 440 t-inv F
  0.339806  0.339806  0.679612    0.00000000 441 t-inv F
  0.338592  0.338592  0.677184    0.00000000 442 t-inv F
  0.337379  0.337379  0.674757    0.00000000 443 t-inv F
  0.336165  0.336165  0.672330    0.00000000 444 t-inv F
  0.334951  0.334951  0.669903    0.00000000 445 t-inv F
  0.333738  0.333738  0.667476    0.00000000 446 t-inv F
  0.332524  0.332524  0.665049    0.00000000 447 t-inv F
  0.331311  0.331311  0.662621    0.00000000 448 t-inv F
  0.330097  0.330097  0.660194    0.00000000 449 t-inv F
  0.328883  0.328883  0.657767    0.00000000 450 t-inv F
  0.327670  0.327670  0.655340    0.00000000 451 t-inv F
  0.326456  0.326456  0.652913    0.00000000 452 t-inv F
  0.325243  0.325243  0.650485    0.00000000 453 t-inv F
  0.324029  0.324029  0.648058    0.00000000 454 t-inv F
  0.322816  0.322816  0.645631    0.00000000 455 t-inv F
  0.321602  0.321602  0.643204    0.00000000 456 t-inv F
  0.320388  0.320388  0.640777    0.00000000 457 t-inv F
  0.319175  0.319175  0.638350    0.00000000 458 t-inv F
  0.317961  0.317961  0.635922    0.00000000 459 t-inv F
  0.316748  0.316748  0.633495    0.00000000 460 t-inv F
  0.315534  0.315534  0.631068    0.00000000 461 t-inv F
  0.314320  0.314320  0.628641    0.00000000 462 t-inv F
  0.313107  0.313107  0.626214    0.00000000 463 t-inv F
  0.311893  0.311893  0.623786    0.00000000 464 t-inv F
  0.310680  0.310680  0.621359    0.00000000 465 t-inv F
  0.309466  0.309466  0.618932    0.00000000 466 t-inv F
  0.308252  0.308252  0.616505    0.00000000 467 t-inv F
  0.307039  0.307039  0.614078    0.00000000 468 t-inv F
  0.305825  0.305825  0.611650    0.00000000 469 t-inv F
  0.304612  0.304612  0.609223    0.00000000 470 t-inv F
  0.303398  0.303398  0.606796    0.00000000 471 t-inv F
  0.302184  0.302184  0.604369    0.00000000 472 t-inv F
  0.300971  0.300971  0.601942    0.00000000 473 t-inv F
  0.299757  0.299757  0.599515    0.00000000 474 t-inv F
  0.298544  0.298544  0.597087    0.00000000 475 t-inv F
  0.297330  0.297330  0.594660    0.00000000 476 t-inv F
  0.296117  0.296117  0.592233    0.00000000 477 t-inv F
  0.294903  0.294903  0.589806    0.00000000 478 t-inv F
  0.293689  0.293689  0.587379    0.00000000 479 t-inv F
  0.292476  0.292476  0.584951    0.00000000 480 t-inv F
  0.291262  0.291262  0.582524    0.00000000 481 t-inv F
  0.290049  0.290049  0.580097    0.00000000 482 t-inv F
  0.288835  0.288835  0.577670    0.00000000 483 t-inv F
  0.287621  0.287621  0.575243    0.00000000 484 t-inv F
  0.286408  0.286408  0.572816    0.00000000 485 t-inv F
  0.285194  0.285194  0.570388    0.00000000 486 t-inv F
  0.283981  0.283981  0.567961    0.00000000 487 t-inv F
  0.282767  0.282767  0.565534    0.00000000 488 t-inv F
  0.281553  0.281553  0.563107    0.00000000 489 t-inv F
  0.280340  0.280340  0.560680    0.00000000 490 t-inv F
  0.279126  0.279126  0.558252    0.00000000 491 t-inv F
  0.277913  0.277913  0.555825    0.00000000 492 t-inv F
  0.276699  0.276699  0.553398    0.00000000 493 t-inv F
  0.275485  0.275485  0.550971    0.00000000 494 t-inv F
  0.274272  0.274272  0.548544    0.00000000 495 t-inv F
  0.273058  0.273058  0.546117    0.00000000 496 t-inv F
  0.271845  0.271845  0.543689    0.00000000 497 t-inv F
  0.270631  0.270631  0.541262    0.00000000 498 t-inv F
  0.269417  0.269417  0.538835    0.00000000 499 t-inv F
  0.268204  0.268204  0.536408    0.00000000 500 t-inv F
  0.266990  0.266990  0.533981    0.00000000 501 t-inv F
  0.265777  0.265777  0.531553    0.00000000 502 t-inv F
  0.264563  0.264563  0.529126    0.00000000 503 t-inv F
  0.263350  0.263350  0.526699    0.00000000 504 t-inv F
  0.262136  0.262136  0.524272    0.00000000 505 t-inv F
  0.260922  0.260922  0.521845    0.00000000 506 t-inv F
  0.259709  0.259709  0.519417    0.00000000 507 t-inv F
  0.258495  0.258495  0.516990    0.00000000 508 t-inv F
  0.257282  0.257282  0.514563    0.00000000 509 t-inv F
  0.256068  0.256068  0.512136    0.00000000 510 t-inv F
  0.254854  0.254854  0.509709    0.00000000 511 t-inv F
  0.253641  0.253641  0.507282    0.00000000 512 t-inv F
  0.252427  0.252427  0.504854    0.00000000 513 t-inv F
  0.251214  0.251214  0.502427    0.00000000 514 t-inv F
  0.250000  0.250000  0.500000    0.00000000 515 t-inv F
  0.248786  0.248786  0.497573    0.00000000 516 t-inv F
  0.247573  0.247573  0.495146    0.00000000 517 t-inv F
  0.246359  0.246359  0.492718    0.00000000 518 t-inv F
  0.245146  0.245146  0.490291    0.00000000 519 t-inv F
  0.243932  0.243932  0.487864    0.00000000 520 t-inv F
  0.242718  0.242718  0.485437    0.00000000 521 t-inv F
  0.241505  0.241505  0.483010    0.00000000 522 t-inv F
  0.240291  0.240291  0.480583    0.00000000 523 t-inv F
  0.239078  0.239078  0.478155    0.00000000 524 t-inv F
  0.237864  0.237864  0.475728    0.00000000 525 t-inv F
  0.236651  0.236651  0.473301    0.00000000 526 t-inv F
  0.235437  0.235437  0.470874    0.00000000 527 t-inv F
  0.234223  0.234223  0.468447    0.00000000 528 t-inv F
  0.233010  0.233010  0.466019    0.00000000 529 t-inv F
  0.231796  0.231796  0.463592    0.00000000 530 t-inv F
  0.230583  0.230583  0.461165    0.00000000 531 t-inv F
  0.229369  0.229369  0.458738    0.00000000 532 t-inv F
  0.228155  0.228155  0.456311    0.00000000 533 t-inv F
  0.226942  0.226942  0.453883    0.00000000 534 t-inv F
  0.225728  0.225728  0.451456    0.00000000 535 t-inv F
  0.224515  0.224515  0.449029    0.00000000 536 t-inv F
  0.223301  0.223301  0.446602    0.00000000 537 t-inv F
  0.222087  0.222087  0.444175    0.00000000 538 t-inv F
  0.220874  0.220874  0.441748    0.00000000 539 t-inv F
  0.219660  0.219660  0.439320    0.00000000 540 t-inv F
  0.218447  0.218447  0.436893    0.00000000 541 t-inv F
  0.217233  0.217233  0.434466    0.00000000 542 t-inv F
  0.216019  0.216019  0.432039    0.00000000 543 t-inv F
  0.214806  0.214806  0.429612    0.00000000 544 t-inv F
  0.213592  0.213592  0.427184    0.00000000 545 t-inv F
  0.212379  0.212379  0.424757    0.00000000 546 t-inv F
  0.211165  0.211165  0.422330    0.00000000 547 t-inv F
  0.209951  0.209951  0.419903    0.00000000 548 t-inv F
  0.208738  0.208738  0.417476    0.00000000 549 t-inv F
  0.207524  0.207524  0.415049    0.00000000 550 t-inv F
  0.206311  0.206311  0.412621    0.00000000 551 t-inv F
  0.205097  0.205097  0.410194    0.00000000 552 t-inv F
  0.203883  0.203883  0.407767    0.00000000 553 t-inv F
  0.202670  0.202670  0.405340    0.00000000 554 t-inv F
  0.201456  0.201456  0.402913    0.00000000 555 t-inv F
  0.200243  0.200243  0.400485    0.00000000 556 t-inv F
  0.199029  0.199029  0.398058    0.00000000 557 t-inv F
  0.197816  0.197816  0.395631    0.00000000 558 t-inv F
  0.196602  0.196602  0.393204    0.00000000 559 t-inv F
  0.195388  0.195388  0.390777    0.00000000 560 t-inv F
  0.194175  0.194175  0.388350    0.00000000 561 t-inv F
  0.192961  0.192961  0.385922    0.00000000 562 t-inv F
  0.191748  0.191748  0.383495    0.00000000 563 t-inv F
  0.190534  0.190534  0.381068    0.00000000 564 t-inv F
  0.189320  0.189320  0.378641    0.00000000 565 t-inv F
  0.188107  0.188107  0.376214    0.00000000 566 t-inv F
  0.186893  0.186893  0.373786    0.00000000 567 t-inv F
  0.185680  0.185680  0.371359    0.00000000 568 t-inv F
  0.184466  0.184466  0.368932    0.00000000 569 t-inv F
  0.183252  0.183252  0.366505    0.00000000 570 t-inv F
  0.182039  0.182039  0.364078    0.00000000 571 t-inv F
  0.180825  0.180825  0.361650    0.00000000 572 t-inv F
  0.179612  0.179612  0.359223    0.00000000 573 t-inv F
  0.178398  0.178398  0.356796    0.00000000 574 t-inv F
  0.177184  0.177184  0.354369    0.00000000 575 t-inv F
  0.175971  0.175971  0.351942    0.00000000 576 t-inv F
  0.174757  0.174757  0.349515    0.00000000 577 t-inv F
  0.173544  0.173544  0.347087    0.00000000 578 t-inv F
  0.172330  0.172330  0.344660    0.00000000 579 t-inv F
  0.171117  0.171117  0.342233    0.00000000 580 t-inv F
  0.169903  0.169903  0.339806    0.00000000 581 t-inv F
  0.168689  0.168689  0.337379    0.00000000 582 t-inv F
  0.167476  0.167476  0.334951    0.00000000 583 t-inv F
  0.166262  0.166262  0.332524    0.00000000 584 t-inv F
  0.165049  0.165049  0.330097    0.00000000 585 t-inv F
  0.163835  0.163835  0.327670    0.00000000 586 t-inv F
  0.162621  0.162621  0.325243    0.00000000 587 t-inv F
  0.161408  0.161408  0.322816    0.00000000 588 t-inv F
  0.160194  0.160194  0.320388    0.00000000 589 t-inv F
  0.158981  0.158981  0.317961    0.00000000 590 t-inv F
  0.157767  0.157767  0.315534    0.00000000 591 t-inv F
  0.156553  0.156553  0.313107    0.00000000 592 t-inv F
  0.155340  0.155340  0.310680    0.00000000 593 t-inv F
  0.154126  0.154126  0.308252    0.00000000 594 t-inv F
  0.152913  0.152913  0.305825    0.00000000 595 t-inv F
  0.151699  0.151699  0.303398    0.00000000 596 t-inv F
  0.150485  0.150485  0.300971    0.00000000 597 t-inv F
  0.149272  0.149272  0.298544    0.00000000 598 t-inv F
  0.148058  0.148058  0.296117    0.00000000 599 t-inv F
  0.146845  0.146845  0.293689    0.00000000 600 t-inv F
  0.145631  0.145631  0.291262    0.00000000 601 t-inv F
  0.144417  0.144417  0.288835    0.00000000 602 t-inv F
  0.143204  0.143204  0.286408    0.00000000 603 t-inv F
  0.141990  0.141990  0.283981    0.00000000 604 t-inv F
  0.140777  0.140777  0.281553    0.00000000 605 t-inv F
  0.139563  0.139563  0.279126    0.00000000 606 t-inv F
  0.138350  0.138350  0.276699    0.00000000 607 t-inv F
  0.137136  0.137136  0.274272    0.00000000 608 t-inv F
  0.135922  0.135922  0.271845    0.00000000 609 t-inv F
  0.134709  0.134709  0.269417    0.00000000 610 t-inv F
  0.133495  0.133495  0.266990    0.00000000 611 t-inv F
  0.132282  0.132282  0.264563    0.00000000 612 t-inv F
  0.131068  0.131068  0.262136    0.00000000 613 t-inv F
  0.129854  0.129854  0.259709    0.00000000 614 t-inv F
  0.128641  0.128641  0.257282    0.00000000 615 t-inv F
  0.127427  0.127427  0.254854    0.00000000 616 t-inv F
  0.126214  0.126214  0.252427    0.00000000 617 t-inv F
  0.125000  0.125000  0.250000    0.00000000 618 t-inv F
  0.123786  0.123786  0.247573    0.00000000 619 t-inv F
  0.122573  0.122573  0.245146    0.00000000 620 t-inv F
  0.121359  0.121359  0.242718    0.00000000 621 t-inv F
  0.120146  0.120146  0.240291    0.00000000 622 t-inv F
  0.118932  0.118932  0.237864    0.00000000 623 t-inv F
  0.117718  0.117718  0.235437    0.00000000 624 t-inv F
  0.116505  0.116505  0.233010    0.00000000 625 t-inv F
  0.115291  0.115291  0.230583    0.00000000 626 t-inv F
  0.114078  0.114078  0.228155    0.00000000 627 t-inv F
  0.112864  0.112864  0.225728    0.00000000 628 t-inv F
  0.111650  0.111650  0.223301    0.00000000 629 t-inv F
  0.110437  0.110437  0.220874    0.00000000 630 t-inv F
  0.109223  0.109223  0.218447    0.00000000 631 t-inv F
  0.108010  0.108010  0.216019    0.00000000 632 t-inv F
  0.106796  0.106796  0.213592    0.00000000 633 t-inv F
  0.105583  0.105583  0.211165    0.00000000 634 t-inv F
  0.104369  0.104369  0.208738    0.00000000 635 t-inv F
  0.103155  0.103155  0.206311    0.00000000 636 t-inv F
  0.101942  0.101942  0.203884    0.00000000 637 t-inv F
  0.100728  0.100728  0.201456    0.00000000 638 t-inv F
  0.099515  0.099515  0.199029    0.00000000 639 t-inv F
  0.098301  0.098301  0.196602    0.00000000 640 t-inv F
  0.097087  0.097087  0.194175    0.00000000 641 t-inv F
  0.095874  0.095874  0.191748    0.00000000 642 t-inv F
  0.094660  0.094660  0.189320    0.00000000 643 t-inv F
  0.093447  0.093447  0.186893    0.00000000 644 t-inv F
  0.092233  0.092233  0.184466    0.00000000 645 t-inv F
  0.091019  0.091019  0.182039    0.00000000 646 t-inv F
  0.089806  0.089806  0.179612    0.00000000 647 t-inv F
  0.088592  0.088592  0.177184    0.00000000 648 t-inv F
  0.087379  0.087379  0.174757    0.00000000 649 t-inv F
  0.086165  0.086165  0.172330    0.00000000 650 t-inv F
  0.084951  0.084951  0.169903    0.00000000 651 t-inv F
  0.083738  0.083738  0.167476    0.00000000 652 t-inv F
  0.082524  0.082524  0.165049    0.00000000 653 t-inv F
  0.081311  0.081311  0.162621    0.00000000 654 t-inv F
  0.080097  0.080097  0.160194    0.00000000 655 t-inv F
  0.078883  0.078883  0.157767    0.00000000 656 t-inv F
  0.077670  0.077670  0.155340    0.00000000 657 t-inv F
  0.076456  0.076456  0.152913    0.00000000 658 t-inv F
  0.075243  0.075243  0.150485    0.00000000 659 t-inv F
  0.074029  0.074029  0.148058    0.00000000 660 t-inv F
  0.072816  0.072816  0.145631    0.00000000 661 t-inv F
  0.071602  0.071602  0.143204    0.00000000 662 t-inv F
  0.070388  0.070388  0.140777    0.00000000 663 t-inv F
  0.069175  0.069175  0.138350    0.00000000 664 t-inv F
  0.067961  0.067961  0.135922    0.00000000 665 t-inv F
  0.066748  0.066748  0.133495    0.00000000 666 t-inv F
  0.065534  0.065534  0.131068    0.00000000 667 t-inv F
  0.064320  0.064320  0.128641    0.00000000 668 t-inv F
  0.063107  0.063107  0.126214    0.00000000 669 t-inv F
  0.061893  0.061893  0.123786    0.00000000 670 t-inv F
  0.060680  0.060680  0.121359    0.00000000 671 t-inv F
  0.059466  0.059466  0.118932    0.00000000 672 t-inv F
  0.058252  0.058252  0.116505    0.00000000 673 t-inv F
  0.057039  0.057039  0.114078    0.00000000 674 t-inv F
  0.055825  0.055825  0.111650    0.00000000 675 t-inv F
  0.054612  0.054612  0.109223    0.00000000 676 t-inv F
  0.053398  0.053398  0.106796    0.00000000 677 t-inv F
  0.052184  0.052184  0.104369    0.00000000 678 t-inv F
  0.050971  0.050971  0.101942    0.00000000 679 t-inv F
  0.049757  0.049757  0.099515    0.00000000 680 t-inv F
  0.048544  0.048544  0.097087    0.00000000 681 t-inv F
  0.047330  0.047330  0.094660    0.00000000 682 t-inv F
  0.046116  0.046116  0.092233    0.00000000 683 t-inv F
  0.044903  0.044903  0.089806    0.00000000 684 t-inv F
  0.043689  0.043689  0.087379    0.00000000 685 t-inv F
  0.042476  0.042476  0.084951    0.00000000 686 t-inv F
  0.041262  0.041262  0.082524    0.00000000 687 t-inv F
  0.040049  0.040049  0.080097    0.00000000 688 t-inv F
  0.038835  0.038835  0.077670    0.00000000 689 t-inv F
  0.037621  0.037621  0.075243    0.00000000 690 t-inv F
  0.036408  0.036408  0.072816    0.00000000 691 t-inv F
  0.035194  0.035194  0.070388    0.00000000 692 t-inv F
  0.033981  0.033981  0.067961    0.00000000 693 t-inv F
  0.032767  0.032767  0.065534    0.00000000 694 t-inv F
  0.031553  0.031553  0.063107    0.00000000 695 t-inv F
  0.030340  0.030340  0.060680    0.00000000 696 t-inv F
  0.029126  0.029126  0.058252    0.00000000 697 t-inv F
  0.027913  0.027913  0.055825    0.00000000 698 t-inv F
  0.026699  0.026699  0.053398    0.00000000 699 t-inv F
  0.025485  0.025485  0.050971    0.00000000 700 t-inv F
  0.024272  0.024272  0.048544    0.00000000 701 t-inv F
  0.023058  0.023058  0.046116    0.00000000 702 t-inv F
  0.021845  0.021845  0.043689    0.00000000 703 t-inv F
  0.020631  0.020631  0.041262    0.00000000 704 t-inv F
  0.019417  0.019417  0.038835    0.00000000 705 t-inv F
  0.018204  0.018204  0.036408    0.00000000 706 t-inv F
  0.016990  0.016990  0.033981    0.00000000 707 t-inv F
  0.015777  0.015777  0.031553    0.00000000 708 t-inv F
  0.014563  0.014563  0.029126    0.00000000 709 t-inv F
  0.013350  0.013350  0.026699    0.00000000 710 t-inv F
  0.012136  0.012136  0.024272    0.00000000 711 t-inv F
  0.010922  0.010922  0.021845    0.00000000 712 t-inv F
  0.009709  0.009709  0.019417    0.00000000 713 t-inv F
  0.008495  0.008495  0.016990    0.00000000 714 t-inv F
  0.007282  0.007282  0.014563    0.00000000 715 t-inv F
  0.006068  0.006068  0.012136    0.00000000 716 t-inv F
  0.004854  0.004854  0.009709    0.00000000 717 t-inv F
  0.003641  0.003641  0.007282    0.00000000 718 t-inv F
  0.002427  0.002427  0.004854    0.00000000 719 t-inv F
  0.001214  0.001214  0.002427    0.00000000 720 t-inv F
  0.000000  0.000000  0.000000    0.00000000 721 t-inv F
  0.001718  0.001718  0.001718    0.00000000 722 t-inv F
  0.003436  0.003436  0.003436    0.00000000 723 t-inv F
  0.005155  0.005155  0.005155    0.00000000 724 t-inv F
  0.006873  0.006873  0.006873    0.00000000 725 t-inv F
  0.008591  0.008591  0.008591    0.00000000 726 t-inv F
  0.010309  0.010309  0.010309    0.00000000 727 t-inv F
  0.012027  0.012027  0.012027    0.00000000 728 t-inv F
  0.013746  0.013746  0.013746    0.00000000 729 t-inv F
  0.015464  0.015464  0.015464    0.00000000 730 t-inv F
  0.017182  0.017182  0.017182    0.00000000 731 t-inv F
  0.018900  0.018900  0.018900    0.00000000 732 t-inv F
  0.020619  0.020619  0.020619    0.00000000 733 t-inv F
  0.022337  0.022337  0.022337    0.00000000 734 t-inv F
  0.024055  0.024055  0.024055    0.00000000 735 t-inv F
  0.025773  0.025773  0.025773    0.00000000 736 t-inv F
  0.027491  0.027491  0.027491    0.00000000 737 t-inv F
  0.029210  0.029210  0.029210    0.00000000 738 t-inv F
  0.030928  0.030928  0.030928    0.00000000 739 t-inv F
  0.032646  0.032646  0.032646    0.00000000 740 t-inv F
  0.034364  0.034364  0.034364    0.00000000 741 t-inv F
  0.036082  0.036082  0.036082    0.00000000 742 t-inv F
  0.037801  0.037801  0.037801    0.00000000 743 t-inv F
  0.039519  0.039519  0.039519    0.00000000 744 t-inv F
  0.041237  0.041237  0.041237    0.00000000 745 t-inv F
  0.042955  0.042955  0.042955    0.00000000 746 t-inv F
  0.044674  0.044674  0.044674    0.00000000 747 t-inv F
  0.046392  0.046392  0.046392    0.00000000 748 t-inv F
  0.048110  0.048110  0.048110    0.00000000 749 t-inv F
  0.049828  0.049828  0.049828    0.00000000 750 t-inv F
  0.051546  0.051546  0.051546    0.00000000 751 t-inv F
  0.053265  0.053265  0.053265    0.00000000 752 t-inv F
  0.054983  0.054983  0.054983    0.00000000 753 t-inv F
  0.056701  0.056701  0.056701    0.00000000 754 t-inv F
  0.058419  0.058419  0.058419    0.00000000 755 t-inv F
  0.060137  0.060137  0.060137    0.00000000 756 t-inv F
  0.061856  0.061856  0.061856    0.00000000 757 t-inv F
  0.063574  0.063574  0.063574    0.00000000 758 t-inv F
  0.065292  0.065292  0.065292    0.00000000 759 t-inv F
  0.067010  0.067010  0.067010    0.00000000 760 t-inv F
  0.068729  0.068729  0.068729    0.00000000 761 t-inv F
  0.070447  0.070447  0.070447    0.00000000 762 t-inv F
  0.072165  0.072165  0.072165    0.00000000 763 t-inv F
  0.073883  0.073883  0.073883    0.00000000 764 t-inv F
  0.075601  0.075601  0.075601    0.00000000 765 t-inv F
  0.077320  0.077320  0.077320    0.00000000 766 t-inv F
  0.079038  0.079038  0.079038    0.00000000 767 t-inv F
  0.080756  0.080756  0.080756    0.00000000 768 t-inv F
  0.082474  0.082474  0.082474    0.00000000 769 t-inv F
  0.084192  0.084192  0.084192    0.00000000 770 t-inv F
  0.085911  0.085911  0.085911    0.00000000 771 t-inv F
  0.087629  0.087629  0.087629    0.00000000 772 t-inv F
  0.089347  0.089347  0.089347    0.00000000 773 t-inv F
  0.091065  0.091065  0.091065    0.00000000 774 t-inv F
  0.092784  0.092784  0.092784    0.00000000 775 t-inv F
  0.094502  0.094502  0.094502    0.00000000 776 t-inv F
  0.096220  0.096220  0.096220    0.00000000 777 t-inv F
  0.097938  0.097938  0.097938    0.00000000 778 t-inv F
  0.099656  0.099656  0.099656    0.00000000 779 t-inv F
  0.101375  0.101375  0.101375    0.00000000 780 t-inv F
  0.103093  0.103093  0.103093    0.00000000 781 t-inv F
  0.104811  0.104811  0.104811    0.00000000 782 t-inv F
  0.106529  0.106529  0.106529    0.00000000 783 t-inv F
  0.108247  0.108247  0.108247    0.00000000 784 t-inv F
  0.109966  0.109966  0.109966    0.00000000 785 t-inv F
  0.111684  0.111684  0.111684    0.00000000 786 t-inv F
  0.113402  0.113402  0.113402    0.00000000 787 t-inv F
  0.115120  0.115120  0.115120    0.00000000 788 t-inv F
  0.116838  0.116838  0.116838    0.00000000 789 t-inv F
  0.118557  0.118557  0.118557    0.00000000 790 t-inv F
  0.120275  0.120275  0.120275    0.00000000 791 t-inv F
  0.121993  0.121993  0.121993    0.00000000 792 t-inv F
  0.123711  0.123711  0.123711    0.00000000 793 t-inv F
  0.125430  0.125430  0.125430    0.00000000 794 t-inv F
  0.127148  0.127148  0.127148    0.00000000 795 t-inv F
  0.128866  0.128866  0.128866    0.00000000 796 t-inv F
  0.130584  0.130584  0.130584    0.00000000 797 t-inv F
  0.132302  0.132302  0.132302    0.00000000 798 t-inv F
  0.134021  0.134021  0.134021    0.00000000 799 t-inv F
  0.135739  0.135739  0.135739    0.00000000 800 t-inv F
  0.137457  0.137457  0.137457    0.00000000 801 t-inv F
  0.139175  0.139175  0.139175    0.00000000 802 t-inv F
  0.140893  0.140893  0.140893    0.00000000 803 t-inv F
  0.142612  0.142612  0.142612    0.00000000 804 t-inv F
  0.144330  0.144330  0.144330    0.00000000 805 t-inv F
  0.146048  0.146048  0.146048    0.00000000 806 t-inv F
  0.147766  0.147766  0.147766    0.00000000 807 t-inv F
  0.149485  0.149485  0.149485    0.00000000 808 t-inv F
  0.151203  0.151203  0.151203    0.00000000 809 t-inv F
  0.152921  0.152921  0.152921    0.00000000 810 t-inv F
  0.154639  0.154639  0.154639    0.00000000 811 t-inv F
  0.156357  0.156357  0.156357    0.00000000 812 t-inv F
  0.158076  0.158076  0.158076    0.00000000 813 t-inv F
  0.159794  0.159794  0.159794    0.00000000 814 t-inv F
  0.161512  0.161512  0.161512    0.00000000 815 t-inv F
  0.163230  0.163230  0.163230    0.00000000 816 t-inv F
  0.164948  0.164948  0.164948    0.00000000 817 t-inv F
  0.166667  0.166667  0.166667    0.00000000 818 t-inv F
  0.168385  0.168385  0.168385    0.00000000 819 t-inv F
  0.170103  0.170103  0.170103    0.00000000 820 t-inv F
  0.171821  0.171821  0.171821    0.00000000 821 t-inv F
  0.173540  0.173540  0.173540    0.00000000 822 t-inv F
  0.175258  0.175258  0.175258    0.00000000 823 t-inv F
  0.176976  0.176976  0.176976    0.00000000 824 t-inv F
  0.178694  0.178694  0.178694    0.00000000 825 t-inv F
  0.180412  0.180412  0.180412    0.00000000 826 t-inv F
  0.182131  0.182131  0.182131    0.00000000 827 t-inv F
  0.183849  0.183849  0.183849    0.00000000 828 t-inv F
  0.185567  0.185567  0.185567    0.00000000 829 t-inv F
  0.187285  0.187285  0.187285    0.00000000 830 t-inv F
  0.189003  0.189003  0.189003    0.00000000 831 t-inv F
  0.190722  0.190722  0.190722    0.00000000 832 t-inv F
  0.192440  0.192440  0.192440    0.00000000 833 t-inv F
  0.194158  0.194158  0.194158    0.00000000 834 t-inv F
  0.195876  0.195876  0.195876    0.00000000 835 t-inv F
  0.197594  0.197594  0.197594    0.00000000 836 t-inv F
  0.199313  0.199313  0.199313    0.00000000 837 t-inv F
  0.201031  0.201031  0.201031    0.00000000 838 t-inv F
  0.202749  0.202749  0.202749    0.00000000 839 t-inv F
  0.204467  0.204467  0.204467    0.00000000 840 t-inv F
  0.206186  0.206186  0.206186    0.00000000 841 t-inv F
  0.207904  0.207904  0.207904    0.00000000 842 t-inv F
  0.209622  0.209622  0.209622    0.00000000 843 t-inv F
  0.211340  0.211340  0.211340    0.00000000 844 t-inv F
  0.213058  0.213058  0.213058    0.00000000 845 t-inv F
  0.214777  0.214777  0.214777    0.00000000 846 t-inv F
  0.216495  0.216495  0.216495    0.00000000 847 t-inv F
  0.218213  0.218213  0.218213    0.00000000 848 t-inv F
  0.219931  0.219931  0.219931    0.00000000 849 t-inv F
  0.221649  0.221649  0.221649    0.00000000 850 t-inv F
  0.223368  0.223368  0.223368    0.00000000 851 t-inv F
  0.225086  0.225086  0.225086    0.00000000 852 t-inv F
  0.226804  0.226804  0.226804    0.00000000 853 t-inv F
  0.228522  0.228522  0.228522    0.00000000 854 t-inv F
  0.230241  0.230241  0.230241    0.00000000 855 t-inv F
  0.231959  0.231959  0.231959    0.00000000 856 t-inv F
  0.233677  0.233677  0.233677    0.00000000 857 t-inv F
  0.235395  0.235395  0.235395    0.00000000 858 t-inv F
  0.237113  0.237113  0.237113    0.00000000 859 t-inv F
  0.238832  0.238832  0.238832    0.00000000 860 t-inv F
  0.240550  0.240550  0.240550    0.00000000 861 t-inv F
  0.242268  0.242268  0.242268    0.00000000 862 t-inv F
  0.243986  0.243986  0.243986    0.00000000 863 t-inv F
  0.245704  0.245704  0.245704    0.00000000 864 t-inv F
  0.247423  0.247423  0.247423    0.00000000 865 t-inv F
  0.249141  0.249141  0.249141    0.00000000 866 t-inv F
  0.250859  0.250859  0.250859    0.00000000 867 t-inv F
  0.252577  0.252577  0.252577    0.00000000 868 t-inv F
  0.254296  0.254296  0.254296    0.00000000 869 t-inv F
  0.256014  0.256014  0.256014    0.00000000 870 t-inv F
  0.257732  0.257732  0.257732    0.00000000 871 t-inv F
  0.259450  0.259450  0.259450    0.00000000 872 t-inv F
  0.261168  0.261168  0.261168    0.00000000 873 t-inv F
  0.262887  0.262887  0.262887    0.00000000 874 t-inv F
  0.264605  0.264605  0.264605    0.00000000 875 t-inv F
  0.266323  0.266323  0.266323    0.00000000 876 t-inv F
  0.268041  0.268041  0.268041    0.00000000 877 t-inv F
  0.269759  0.269759  0.269759    0.00000000 878 t-inv F
  0.271478  0.271478  0.271478    0.00000000 879 t-inv F
  0.273196  0.273196  0.273196    0.00000000 880 t-inv F
  0.274914  0.274914  0.274914    0.00000000 881 t-inv F
  0.276632  0.276632  0.276632    0.00000000 882 t-inv F
  0.278351  0.278351  0.278351    0.00000000 883 t-inv F
  0.280069  0.280069  0.280069    0.00000000 884 t-inv F
  0.281787  0.281787  0.281787    0.00000000 885 t-inv F
  0.283505  0.283505  0.283505    0.00000000 886 t-inv F
  0.285223  0.285223  0.285223    0.00000000 887 t-inv F
  0.286942  0.286942  0.286942    0.00000000 888 t-inv F
  0.288660  0.288660  0.288660    0.00000000 889 t-inv F
  0.290378  0.290378  0.290378    0.00000000 890 t-inv F
  0.292096  0.292096  0.292096    0.00000000 891 t-inv F
  0.293814  0.293814  0.293814    0.00000000 892 t-inv F
  0.295533  0.295533  0.295533    0.00000000 893 t-inv F
  0.297251  0.297251  0.297251    0.00000000 894 t-inv F
  0.298969  0.298969  0.298969    0.00000000 895 t-inv F
  0.300687  0.300687  0.300687    0.00000000 896 t-inv F
  0.302405  0.302405  0.302405    0.00000000 897 t-inv F
  0.304124  0.304124  0.304124    0.00000000 898 t-inv F
  0.305842  0.305842  0.305842    0.00000000 899 t-inv F
  0.307560  0.307560  0.307560    0.00000000 900 t-inv F
  0.309278  0.309278  0.309278    0.00000000 901 t-inv F
  0.310997  0.310997  0.310997    0.00000000 902 t-inv F
  0.312715  0.312715  0.312715    0.00000000 903 t-inv F
  0.314433  0.314433  0.314433    0.00000000 904 t-inv F
  0.316151  0.316151  0.316151    0.00000000 905 t-inv F
  0.317869  0.317869  0.317869    0.00000000 906 t-inv F
  0.319588  0.319588  0.319588    0.00000000 907 t-inv F
  0.321306  0.321306  0.321306    0.00000000 908 t-inv F
  0.323024  0.323024  0.323024    0.00000000 909 t-inv F
  0.324742  0.324742  0.324742    0.00000000 910 t-inv F
  0.326460  0.326460  0.326460    0.00000000 911 t-inv F
  0.328179  0.328179  0.328179    0.00000000 912 t-inv F
  0.329897  0.329897  0.329897    0.00000000 913 t-inv F
  0.331615  0.331615  0.331615    0.00000000 914 t-inv F
  0.333333  0.333333  0.333333    0.00000000 915 t-inv F
  0.335052  0.335052  0.335052    0.00000000 916 t-inv F
  0.336770  0.336770  0.336770    0.00000000 917 t-inv F
  0.338488  0.338488  0.338488    0.00000000 918 t-inv F
  0.340206  0.340206  0.340206    0.00000000 919 t-inv F
  0.341924  0.341924  0.341924    0.00000000 920 t-inv F
  0.343643  0.343643  0.343643    0.00000000 921 t-inv F
  0.345361  0.345361  0.345361    0.00000000 922 t-inv F
  0.347079  0.347079  0.347079    0.00000000 923 t-inv F
  0.348797  0.348797  0.348797    0.00000000 924 t-inv F
  0.350515  0.350515  0.350515    0.00000000 925 t-inv F
  0.352234  0.352234  0.352234    0.00000000 926 t-inv F
  0.353952  0.353952  0.353952    0.00000000 927 t-inv F
  0.355670  0.355670  0.355670    0.00000000 928 t-inv F
  0.357388  0.357388  0.357388    0.00000000 929 t-inv F
  0.359107  0.359107  0.359107    0.00000000 930 t-inv F
  0.360825  0.360825  0.360825    0.00000000 931 t-inv F
  0.362543  0.362543  0.362543    0.00000000 932 t-inv F
  0.364261  0.364261  0.364261    0.00000000 933 t-inv F
  0.365979  0.365979  0.365979    0.00000000 934 t-inv F
  0.367698  0.367698  0.367698    0.00000000 935 t-inv F
  0.369416  0.369416  0.369416    0.00000000 936 t-inv F
  0.371134  0.371134  0.371134    0.00000000 937 t-inv F
  0.372852  0.372852  0.372852    0.00000000 938 t-inv F
  0.374570  0.374570  0.374570    0.00000000 939 t-inv F
  0.376289  0.376289  0.376289    0.00000000 940 t-inv F
  0.378007  0.378007  0.378007    0.00000000 941 t-inv F
  0.379725  0.379725  0.379725    0.00000000 942 t-inv F
  0.381443  0.381443  0.381443    0.00000000 943 t-inv F
  0.383161  0.383161  0.383161    0.00000000 944 t-inv F
  0.384880  0.384880  0.384880    0.00000000 945 t-inv F
  0.386598  0.386598  0.386598    0.00000000 946 t-inv F
  0.388316  0.388316  0.388316    0.00000000 947 t-inv F
  0.390034  0.390034  0.390034    0.00000000 948 t-inv F
  0.391753  0.391753  0.391753    0.00000000 949 t-inv F
  0.393471  0.393471  0.393471    0.00000000 950 t-inv F
  0.395189  0.395189  0.395189    0.00000000 951 t-inv F
  0.396907  0.396907  0.396907    0.00000000 952 t-inv F
  0.398625  0.398625  0.398625    0.00000000 953 t-inv F
  0.400344  0.400344  0.400344    0.00000000 954 t-inv F
  0.402062  0.402062  0.402062    0.00000000 955 t-inv F
  0.403780  0.403780  0.403780    0.00000000 956 t-inv F
  0.405498  0.405498  0.405498    0.00000000 957 t-inv F
  0.407216  0.407216  0.407216    0.00000000 958 t-inv F
  0.408935  0.408935  0.408935    0.00000000 959 t-inv F
  0.410653  0.410653  0.410653    0.00000000 960 t-inv F
  0.412371  0.412371  0.412371    0.00000000 961 t-inv F
  0.414089  0.414089  0.414089    0.00000000 962 t-inv F
  0.415808  0.415808  0.415808    0.00000000 963 t-inv F
  0.417526  0.417526  0.417526    0.00000000 964 t-inv F
  0.419244  0.419244  0.419244    0.00000000 965 t-inv F
  0.420962  0.420962  0.420962    0.00000000 966 t-inv F
  0.422680  0.422680  0.422680    0.00000000 967 t-inv F
  0.424399  0.424399  0.424399    0.00000000 968 t-inv F
  0.426117  0.426117  0.426117    0.00000000 969 t-inv F
  0.427835  0.427835  0.427835    0.00000000 970 t-inv F
  0.429553  0.429553  0.429553    0.00000000 971 t-inv F
  0.431271  0.431271  0.431271    0.00000000 972 t-inv F
  0.432990  0.432990  0.432990    0.00000000 973 t-inv F
  0.434708  0.434708  0.434708    0.00000000 974 t-inv F
  0.436426  0.436426  0.436426    0.00000000 975 t-inv F
  0.438144  0.438144  0.438144    0.00000000 976 t-inv F
  0.439863  0.439863  0.439863    0.00000000 977 t-inv F
  0.441581  0.441581  0.441581    0.00000000 978 t-inv F
  0.443299  0.443299  0.443299    0.00000000 979 t-inv F
  0.445017  0.445017  0.445017    0.00000000 980 t-inv F
  0.446735  0.446735  0.446735    0.00000000 981 t-inv F
  0.448454  0.448454  0.448454    0.00000000 982 t-inv F
  0.450172  0.450172  0.450172    0.00000000 983 t-inv F
  0.451890  0.451890  0.451890    0.00000000 984 t-inv F
  0.453608  0.453608  0.453608    0.00000000 985 t-inv F
  0.455326  0.455326  0.455326    0.00000000 986 t-inv F
  0.457045  0.457045  0.457045    0.00000000 987 t-inv F
  0.458763  0.458763  0.458763    0.00000000 988 t-inv F
  0.460481  0.460481  0.460481    0.00000000 989 t-inv F
  0.462199  0.462199  0.462199    0.00000000 990 t-inv F
  0.463917  0.463917  0.463917    0.00000000 991 t-inv F
  0.465636  0.465636  0.465636    0.00000000 992 t-inv F
  0.467354  0.467354  0.467354    0.00000000 993 t-inv F
  0.469072  0.469072  0.469072    0.00000000 994 t-inv F
  0.470790  0.470790  0.470790    0.00000000 995 t-inv F
  0.472509  0.472509  0.472509    0.00000000 996 t-inv F
  0.474227  0.474227  0.474227    0.00000000 997 t-inv F
  0.475945  0.475945  0.475945    0.00000000 998 t-inv F
  0.477663  0.477663  0.477663    0.00000000 999 t-inv F
  0.479381  0.479381  0.479381    0.000000001000 t-inv F
  0.481100  0.481100  0.481100    0.000000001001 t-inv F
  0.482818  0.482818  0.482818    0.000000001002 t-inv F
  0.484536  0.484536  0.484536    0.000000001003 t-inv F
  0.486254  0.486254  0.486254    0.000000001004 t-inv F
  0.487972  0.487972  0.487972    0.000000001005 t-inv F
  0.489691  0.489691  0.489691    0.000000001006 t-inv F
  0.491409  0.491409  0.491409    0.000000001007 t-inv F
  0.493127  0.493127  0.493127    0.000000001008 t-inv F
  0.494845  0.494845  0.494845    0.000000001009 t-inv F
  0.496564  0.496564  0.496564    0.000000001010 t-inv F
  0.498282  0.498282  0.498282    0.000000001011 t-inv F
  0.500000  0.500000  0.500000    0.000000001012 t-inv F
  0.000000  0.166667  0.000000    0.00462963   2 t-inv F
  0.000000  0.000000  0.166667    0.00462963   2 t-inv F
 -0.166667 -0.166667 -0.166667    0.00462963   2 t-inv F
  0.000000  0.333333  0.000000    0.00462963   3 t-inv F
  0.000000  0.000000  0.333333    0.00462963   3 t-inv F
 -0.333333 -0.333333 -0.333333    0.00462963   3 t-inv F
  0.000000  0.500000  0.000000    0.00462963   4 t-inv F
  0.000000  0.000000  0.500000    0.00462963   4 t-inv F
 -0.500000 -0.500000 -0.500000    0.00462963   4 t-inv F
  0.000000  0.166667  0.166667    0.00462963   5 t-inv F
  0.166667  0.000000  0.166667    0.00462963   5 t-inv F
 -0.166667 -0.166667  0.000000    0.00462963   5 t-inv F
 -0.166667  0.000000 -0.166667    0.00462963   5 t-inv F
  0.000000 -0.166667 -0.166667    0.00462963   5 t-inv F
  0.000000  0.333333  0.166667    0.00462963   6 t-inv F
  0.166667  0.000000  0.333333    0.00462963   6 t-inv F
 -0.166667 -0.166667  0.166667    0.00462963   6 t-inv F
 -0.333333 -0.166667 -0.333333    0.00462963   6 t-inv F
  0.166667  0.333333  0.000000    0.00462963   6 t-inv F
  0.166667 -0.166667 -0.166667    0.00462963   6 t-inv F
 -0.333333 -0.333333 -0.166667    0.00462963   6 t-inv F
  0.000000  0.166667  0.333333    0.00462963   6 t-inv F
 -0.166667  0.166667 -0.166667    0.00462963   6 t-inv F
 -0.166667 -0.333333 -0.333333    0.00462963   6 t-inv F
  0.333333  0.000000  0.166667    0.00462963   6 t-inv F
  0.000000  0.500000  0.166667    0.00462963   7 t-inv F
  0.166667  0.000000  0.500000    0.00462963   7 t-inv F
 -0.166667 -0.166667  0.333333    0.00462963   7 t-inv F
 -0.500000 -0.333333 -0.500000    0.00462963   7 t-inv F
  0.166667  0.500000  0.000000    0.00462963   7 t-inv F
  0.333333 -0.166667 -0.166667    0.00462963   7 t-inv F
 -0.500000 -0.500000 -0.333333    0.00462963   7 t-inv F
  0.000000  0.166667  0.500000    0.00462963   7 t-inv F
 -0.166667  0.333333 -0.166667    0.00462963   7 t-inv F
 -0.333333 -0.500000 -0.500000    0.00462963   7 t-inv F
  0.500000  0.000000  0.166667    0.00462963   7 t-inv F
  0.000000 -0.333333  0.166667    0.00462963   8 t-inv F
  0.166667  0.000000 -0.333333    0.00462963   8 t-inv F
 -0.166667 -0.166667 -0.500000    0.00462963   8 t-inv F
  0.333333  0.500000  0.333333    0.00462963   8 t-inv F
  0.166667 -0.333333  0.000000    0.00462963   8 t-inv F
 -0.500000 -0.166667 -0.166667    0.00462963   8 t-inv F
  0.333333  0.333333  0.500000    0.00462963   8 t-inv F
  0.000000  0.166667 -0.333333    0.00462963   8 t-inv F
 -0.166667 -0.500000 -0.166667    0.00462963   8 t-inv F
  0.500000  0.333333  0.333333    0.00462963   8 t-inv F
 -0.333333  0.000000  0.166667    0.00462963   8 t-inv F
  0.000000 -0.166667  0.166667    0.00462963   9 t-inv F
  0.166667  0.000000 -0.166667    0.00462963   9 t-inv F
 -0.166667 -0.166667 -0.333333    0.00462963   9 t-inv F
  0.166667  0.333333  0.166667    0.00462963   9 t-inv F
  0.166667 -0.166667  0.000000    0.00462963   9 t-inv F
[...]
     13       9.8003      0.00000
     14      11.5100      0.00000
     15      13.1311      0.00000
     16      13.1312      0.00000

 k-point   997 :       0.4742    0.4742    0.4742
  band No.  band energies     occupation 
      1      -9.9233      2.00000
      2      -7.6899      2.00000
      3      -7.6899      2.00000
      4      -7.4818      2.00000
      5      -7.4818      2.00000
      6      -7.0529      2.00000
      7      -2.8822      2.00000
      8       1.0072      2.00000
      9       1.0072      2.00000
     10       4.4462      0.00000
     11       7.8873      0.00000
     12       7.8873      0.00000
     13       9.8014      0.00000
     14      11.5180      0.00000
     15      13.1442      0.00000
     16      13.1442      0.00000

 k-point   998 :       0.4759    0.4759    0.4759
  band No.  band energies     occupation 
      1      -9.9230      2.00000
      2      -7.6898      2.00000
      3      -7.6898      2.00000
      4      -7.4818      2.00000
      5      -7.4818      2.00000
      6      -7.0518      2.00000
      7      -2.8854      2.00000
      8       1.0066      2.00000
      9       1.0066      2.00000
     10       4.4458      0.00000
     11       7.8869      0.00000
     12       7.8869      0.00000
     13       9.8025      0.00000
     14      11.5256      0.00000
     15      13.1566      0.00000
     16      13.1567      0.00000

 k-point   999 :       0.4777    0.4777    0.4777
  band No.  band energies     occupation 
      1      -9.9227      2.00000
      2      -7.6898      2.00000
      3      -7.6898      2.00000
      4      -7.4818      2.00000
      5      -7.4818      2.00000
      6      -7.0507      2.00000
      7      -2.8883      2.00000
      8       1.0061      2.00000
      9       1.0061      2.00000
     10       4.4454      0.00000
     11       7.8866      0.00000
     12       7.8866      0.00000
     13       9.8036      0.00000
     14      11.5328      0.00000
     15      13.1685      0.00000
     16      13.1687      0.00000

 k-point  1000 :       0.4794    0.4794    0.4794
  band No.  band energies     occupation 
      1      -9.9225      2.00000
      2      -7.6898      2.00000
      3      -7.6898      2.00000
      4      -7.4818      2.00000
      5      -7.4818      2.00000
      6      -7.0497      2.00000
      7      -2.8911      2.00000
      8       1.0056      2.00000
      9       1.0056      2.00000
     10       4.4450      0.00000
     11       7.8864      0.00000
     12       7.8864      0.00000
     13       9.8045      0.00000
     14      11.5395      0.00000
     15      13.1796      0.00000
     16      13.1799      0.00000

 k-point  1001 :       0.4811    0.4811    0.4811
  band No.  band energies     occupation 
      1      -9.9222      2.00000
      2      -7.6897      2.00000
      3      -7.6897      2.00000
      4      -7.4818      2.00000
      5      -7.4818      2.00000
      6      -7.0488      2.00000
      7      -2.8936      2.00000
      8       1.0051      2.00000
      9       1.0051      2.00000
     10       4.4447      0.00000
     11       7.8861      0.00000
     12       7.8861      0.00000
     13       9.8053      0.00000
     14      11.5457      0.00000
     15      13.1900      0.00000
     16      13.1901      0.00000

 k-point  1002 :       0.4828    0.4828    0.4828
  band No.  band energies     occupation 
      1      -9.9220      2.00000
      2      -7.6897      2.00000
      3      -7.6897      2.00000
      4      -7.4817      2.00000
      5      -7.4817      2.00000
      6      -7.0480      2.00000
      7      -2.8959      2.00000
      8       1.0047      2.00000
      9       1.0047      2.00000
     10       4.4444      0.00000
     11       7.8859      0.00000
     12       7.8859      0.00000
     13       9.8061      0.00000
     14      11.5515      0.00000
     15      13.1997      0.00000
     16      13.1997      0.00000

 k-point  1003 :       0.4845    0.4845    0.4845
  band No.  band energies     occupation 
      1      -9.9218      2.00000
      2      -7.6897      2.00000
      3      -7.6897      2.00000
      4      -7.4817      2.00000
      5      -7.4817      2.00000
      6      -7.0472      2.00000
      7      -2.8980      2.00000
      8       1.0043      2.00000
      9       1.0043      2.00000
     10       4.4441      0.00000
     11       7.8856      0.00000
     12       7.8856      0.00000
     13       9.8068      0.00000
     14      11.5567      0.00000
     15      13.2086      0.00000
     16      13.2086      0.00000

 k-point  1004 :       0.4863    0.4863    0.4863
  band No.  band energies     occupation 
      1      -9.9217      2.00000
      2      -7.6896      2.00000
      3      -7.6896      2.00000
      4      -7.4817      2.00000
      5      -7.4817      2.00000
      6      -7.0465      2.00000
      7      -2.8999      2.00000
      8       1.0040      2.00000
      9       1.0040      2.00000
     10       4.4438      0.00000
     11       7.8855      0.00000
     12       7.8855      0.00000
     13       9.8074      0.00000
     14      11.5614      0.00000
     15      13.2167      0.00000
     16      13.2171      0.00000

 k-point  1005 :       0.4880    0.4880    0.4880
  band No.  band energies     occupation 
      1      -9.9215      2.00000
      2      -7.6896      2.00000
      3      -7.6896      2.00000
      4      -7.4817      2.00000
      5      -7.4817      2.00000
      6      -7.0460      2.00000
      7      -2.9015      2.00000
      8       1.0037      2.00000
      9       1.0037      2.00000
     10       4.4436      0.00000
     11       7.8853      0.00000
     12       7.8853      0.00000
     13       9.8079      0.00000
     14      11.5656      0.00000
     15      13.2239      0.00000
     16      13.2239      0.00000

 k-point  1006 :       0.4897    0.4897    0.4897
  band No.  band energies     occupation 
      1      -9.9214      2.00000
      2      -7.6896      2.00000
      3      -7.6896      2.00000
      4      -7.4817      2.00000
      5      -7.4817      2.00000
      6      -7.0454      2.00000
      7      -2.9029      2.00000
      8       1.0034      2.00000
      9       1.0034      2.00000
     10       4.4434      0.00000
     11       7.8851      0.00000
     12       7.8851      0.00000
     13       9.8084      0.00000
     14      11.5692      0.00000
     15      13.2302      0.00000
     16      13.2304      0.00000

 k-point  1007 :       0.4914    0.4914    0.4914
  band No.  band energies     occupation 
      1      -9.9213      2.00000
      2      -7.6896      2.00000
      3      -7.6896      2.00000
      4      -7.4817      2.00000
      5      -7.4817      2.00000
      6      -7.0450      2.00000
      7      -2.9042      2.00000
      8       1.0032      2.00000
      9       1.0032      2.00000
     10       4.4432      0.00000
     11       7.8850      0.00000
     12       7.8850      0.00000
     13       9.8088      0.00000
     14      11.5723      0.00000
     15      13.2359      0.00000
     16      13.2363      0.00000

 k-point  1008 :       0.4931    0.4931    0.4931
  band No.  band energies     occupation 
      1      -9.9212      2.00000
      2      -7.6896      2.00000
      3      -7.6896      2.00000
      4      -7.4817      2.00000
      5      -7.4817      2.00000
      6      -7.0446      2.00000
      7      -2.9051      2.00000
      8       1.0030      2.00000
      9       1.0030      2.00000
     10       4.4431      0.00000
     11       7.8849      0.00000
     12       7.8849      0.00000
     13       9.8091      0.00000
     14      11.5749      0.00000
     15      13.2401      0.00000
     16      13.2401      0.00000

 k-point  1009 :       0.4948    0.4948    0.4948
  band No.  band energies     occupation 
      1      -9.9211      2.00000
      2      -7.6896      2.00000
      3      -7.6896      2.00000
      4      -7.4817      2.00000
      5      -7.4817      2.00000
      6      -7.0444      2.00000
      7      -2.9059      2.00000
      8       1.0029      2.00000
      9       1.0029      2.00000
     10       4.4430      0.00000
     11       7.8848      0.00000
     12       7.8848      0.00000
     13       9.8093      0.00000
     14      11.5769      0.00000
     15      13.2436      0.00000
     16      13.2437      0.00000

 k-point  1010 :       0.4966    0.4966    0.4966
  band No.  band energies     occupation 
      1      -9.9211      2.00000
      2      -7.6896      2.00000
      3      -7.6896      2.00000
      4      -7.4817      2.00000
      5      -7.4817      2.00000
      6      -7.0442      2.00000
      7      -2.9065      2.00000
      8       1.0028      2.00000
      9       1.0028      2.00000
     10       4.4429      0.00000
     11       7.8848      0.00000
     12       7.8848      0.00000
     13       9.8095      0.00000
     14      11.5783      0.00000
     15      13.2461      0.00000
     16      13.2465      0.00000

 k-point  1011 :       0.4983    0.4983    0.4983
  band No.  band energies     occupation 
      1      -9.9210      2.00000
      2      -7.6896      2.00000
      3      -7.6896      2.00000
      4      -7.4817      2.00000
      5      -7.4817      2.00000
      6      -7.0440      2.00000
      7      -2.9068      2.00000
      8       1.0027      2.00000
      9       1.0027      2.00000
     10       4.4429      0.00000
     11       7.8847      0.00000
     12       7.8847      0.00000
     13       9.8096      0.00000
     14      11.5791      0.00000
     15      13.2476      0.00000
     16      13.2477      0.00000

 k-point  1012 :       0.5000    0.5000    0.5000
  band No.  band energies     occupation 
      1      -9.9210      2.00000
      2      -7.6896      2.00000
      3      -7.6896      2.00000
      4      -7.4817      2.00000
      5      -7.4817      2.00000
      6      -7.0440      2.00000
      7      -2.9069      2.00000
      8       1.0027      2.00000
      9       1.0027      2.00000
     10       4.4429      0.00000
     11       7.8847      0.00000
     12       7.8847      0.00000
     13       9.8096      0.00000
     14      11.5794      0.00000
     15      13.2481      0.00000
     16      13.2481      0.00000


--------------------------------------------------------------------------------------------------------


 soft charge-density along one line, spin component           1
         0         1         2         3         4         5         6         7         8         9
 total charge-density along one line
 
 pseudopotential strength for first ion, spin component:           1
-16.339   0.000   0.000   0.000   0.000 -16.450   0.000   0.000
  0.000 -16.339   0.000  -0.000  -0.000   0.000 -16.450   0.000
  0.000   0.000 -16.343   0.000  -0.000   0.000   0.000 -16.453
  0.000  -0.000   0.000 -16.339   0.000   0.000  -0.000   0.000
  0.000  -0.000  -0.000   0.000 -16.343   0.000  -0.000  -0.000
-16.450   0.000   0.000   0.000   0.000 -16.537   0.000   0.000
  0.000 -16.450   0.000  -0.000  -0.000   0.000 -16.537   0.000
  0.000   0.000 -16.453   0.000  -0.000   0.000   0.000 -16.541
  0.000  -0.000   0.000 -16.450   0.000   0.000  -0.000   0.000
  0.000  -0.000  -0.000   0.000 -16.453   0.000  -0.000  -0.000
  0.000  -0.000  -0.000  -0.000  -0.000   0.000  -0.000  -0.000
  0.000  -0.000  -0.000  -0.000  -0.000   0.000  -0.000  -0.000
 -0.000   0.000   0.000  -0.000   0.000  -0.000   0.000   0.000
 -0.000  -0.000   0.000  -0.000   0.000  -0.001  -0.000   0.000
 -0.000  -0.000   0.000   0.000  -0.000  -0.000  -0.001   0.000
 -0.000   0.000   0.000  -0.001   0.000  -0.000   0.000   0.000
 -0.001  -0.000   0.000  -0.000   0.000  -0.001  -0.000   0.000
 -0.000  -0.001   0.000   0.000  -0.000  -0.000  -0.001   0.000
 total augmentation occupancy for first ion, spin component:           1
  4.433  -0.000  -0.000   0.000  -0.000  -2.257   0.000   0.000  -0.000  -0.000  -0.000   0.000  -0.000   0.605  -0.000   0.000
 -0.000   4.433  -0.000   0.000   0.000   0.000  -2.257   0.000  -0.000   0.000   0.000   0.000  -0.000  -0.000   0.605   0.000
 -0.000  -0.000   2.729  -0.000  -0.000  -0.000   0.000  -0.620   0.000   0.000   0.000   0.000  -0.000  -0.000   0.000   0.000
  0.000   0.000   0.000   4.433  -0.000   0.000  -0.000   0.000  -2.257   0.000   0.000   0.000   0.605   0.000   0.000  -0.125
 -0.000  -0.000  -0.000  -0.000   2.729  -0.000  -0.000   0.000  -0.000  -0.620  -0.000  -0.000  -0.000   0.000   0.000   0.000
 -2.257   0.000   0.000   0.000  -0.000   2.087  -0.000  -0.000   0.000   0.000   0.000   0.000   0.000  -0.582  -0.000  -0.000
  0.000  -2.257   0.000  -0.000   0.000  -0.000   2.087   0.000   0.000   0.000  -0.000  -0.000  -0.000   0.000  -0.582   0.000
  0.000  -0.000  -0.620   0.000   0.000   0.000   0.000   0.513  -0.000  -0.000  -0.000   0.000   0.000   0.000  -0.000   0.000
 -0.000  -0.000  -0.000  -2.257   0.000   0.000   0.000   0.000   2.087  -0.000   0.000   0.000  -0.582   0.000  -0.000   0.138
 -0.000   0.000   0.000   0.000  -0.620   0.000   0.000  -0.000  -0.000   0.513  -0.000   0.000   0.000  -0.000   0.000  -0.000
  0.000  -0.000   0.000   0.000   0.000   0.000  -0.000  -0.000  -0.000  -0.000   5.693  -2.152  -0.000  -0.000   0.000   0.000
 -0.000  -0.000   0.000   0.000  -0.000   0.000  -0.000   0.000   0.000   0.000  -2.152   0.828  -0.000   0.000  -0.000  -0.000
  0.000   0.000   0.000   0.605  -0.000   0.000  -0.000   0.000  -0.582   0.000  -0.000   0.000   0.247   0.000   0.000  -0.059
  0.605  -0.000   0.000   0.000  -0.000  -0.582   0.000   0.000   0.000  -0.000   0.000   0.000   0.000   0.247   0.000   0.000
 -0.000   0.605   0.000   0.000  -0.000   0.000  -0.582   0.000   0.000  -0.000   0.000   0.000   0.000  -0.000   0.247   0.000
  0.000  -0.000   0.000  -0.125   0.000   0.000   0.000  -0.000   0.138  -0.000   0.000  -0.000  -0.059   0.000   0.000   0.015
 -0.125   0.000   0.000  -0.000   0.000   0.138  -0.000  -0.000  -0.000   0.000  -0.000   0.000   0.000  -0.059  -0.000   0.000
  0.000  -0.125  -0.000  -0.000   0.000  -0.000   0.138   0.000   0.000   0.000   0.000  -0.000  -0.000  -0.000  -0.059   0.000


------------------------ aborting loop because EDIFF is reached ----------------------------------------


 


 total charge     
 
# of ion     s       p       d       tot
----------------------------------------
  1        0.442   0.313   9.574  10.329
  2        1.309   2.230   0.020   3.558
------------------------------------------------
tot        1.751   2.542   9.594  13.887
 
    FORLOC:  cpu time    0.0000: real time    0.0006
    FORHF :  cpu time 1143.1194: real time 1143.8413
    FORNL :  cpu time    0.1120: real time    0.1118
    STRESS:  cpu time    1.3881: real time    1.3901
    FORCOR:  cpu time    0.0320: real time    0.0329
    OFIELD:  cpu time    0.0000: real time    0.0002

  FORCE on cell =-STRESS in cart. coord.  units (eV):
  Direction    XX          YY          ZZ          XY          YZ          ZX
  --------------------------------------------------------------------------------------
  Alpha Z    50.17222    50.17222    50.17222
  Ewald    -348.27726  -348.27726  -348.27726     0.00000     0.00000     0.00000
  Hartree   168.78850   168.78850   168.78850     0.00000    -0.00000    -0.00000
  E(xc)     -66.47792   -66.47792   -66.47792    -0.00000     0.00000     0.00000
  Local     -16.90486   -16.90486   -16.90486     0.00001    -0.00001    -0.00001
  n-local    62.85805    67.65808    66.83420    -1.73757    -2.78582    -1.16058
  augment    -0.14318    -0.14318    -0.14318    -0.00001     0.00001     0.00001
  Kinetic   200.92929   204.03276   204.22515    -1.61380    -2.87090    -1.21955
  Fock            NaN         NaN         NaN         NaN         NaN         NaN
  -------------------------------------------------------------------------------------
  Total           NaN         NaN         NaN         NaN         NaN         NaN
  in kB           NaN         NaN         NaN         NaN         NaN         NaN
  external pressure =         NaN kB  Pullay stress =        0.00 kB


 VOLUME and BASIS-vectors are now :
 -----------------------------------------------------------------------------
  energy-cutoff  :      500.00
  volume of cell :       68.11
      direct lattice vectors                 reciprocal lattice vectors
     3.241350000  3.241350000  0.000000000     0.154256714  0.154256714  0.154256714
     3.241350000  0.000000000 -3.241350000     0.154256714 -0.154256714 -0.154256714
     0.000000000  3.241350000 -3.241350000    -0.154256714  0.154256714 -0.154256714

  length of vectors
     4.583961130  4.583961130  4.583961130     0.267180466  0.267180466  0.267180466


 FORCES acting on ions:
    Electron-Ion                     Ewald-Force                    Non-Local-Force
 -----------------------------------------------------------------------------------------------
   -.125E-07 -.118E-07 0.118E-07   -.744E-14 -.454E-14 0.998E-14   -.781E-17 -.347E-16 0.347E-17
   0.182E-06 0.188E-06 -.188E-06   0.759E-14 0.606E-14 -.102E-13   -.392E-16 -.139E-16 0.833E-16
 -----------------------------------------------------------------------------------------------
   -.889E-06 -.883E-06 0.883E-06   0.152E-15 0.152E-14 -.238E-15   -.471E-16 -.486E-16 0.867E-16
 
 
 POSITION                                       TOTAL-FORCE (eV/Angst)
 -----------------------------------------------------------------------------------
      0.00000      0.00000      0.00000              NaN           NaN           NaN
      1.62068      1.62068     -1.62068              NaN           NaN           NaN
 -----------------------------------------------------------------------------------
    total drift:                                     NaN           NaN           NaN


--------------------------------------------------------------------------------------------------------



  FREE ENERGIE OF THE ION-ELECTRON SYSTEM (eV)
  ---------------------------------------------------
  free  energy   TOTEN  =        -6.02625929 eV

  energy  without entropy=       -6.02625929  energy(sigma->0) =       -6.02625929
 


--------------------------------------------------------------------------------------------------------


    POTLOK:  cpu time    0.1840: real time    0.1818


--------------------------------------------------------------------------------------------------------


 writing wavefunctions
     LOOP+:  cpu time 9411.3442: real time 9419.4516
    4ORBIT:  cpu time    0.0000: real time    0.0000
 


 total charge     
 
# of ion     s       p       d       tot
----------------------------------------
  1        0.442   0.313   9.574  10.329
  2        1.309   2.230   0.020   3.558
------------------------------------------------
tot        1.751   2.542   9.594  13.887
 

 total amount of memory used by VASP on root node   202104. kBytes
========================================================================

   base      :      30000. kBytes
   nonl-proj :      99105. kBytes
   fftplans  :        858. kBytes
   grid      :       1202. kBytes
   one-center:         15. kBytes
   HF        :         64. kBytes
   nonlr-proj:        912. kBytes
   wavefun   :      69948. kBytes
 
  
  
 General timing and accounting informations for this job:
 ========================================================
  
                  Total CPU time used (sec):     9544.532
                            User time (sec):     9535.692
                          System time (sec):        8.841
                         Elapsed time (sec):     9553.454
  
                   Maximum memory used (kb):      347440.
                   Average memory used (kb):           0.
  
                          Minor page faults:        92848
                          Major page faults:            0
                 Voluntary context switches:        15482
