PROCAR new format
# of k-points: 1012         # of bands:  16         # of ions:   2

 k-point    1 :    0.00000000 0.00000000 0.00000000     weight = 0.00462963

band   1 # energy  -10.31034021 # occ.  2.00000000
 
ion      s      p      d    tot
  1  0.065  0.000  0.000  0.065
  2  0.556  0.000  0.000  0.556
tot  0.620  0.000  0.000  0.620
 
band   2 # energy   -7.75266340 # occ.  2.00000000
 
ion      s      p      d    tot
  1  0.000  0.000  0.914  0.915
  2  0.000  0.019  0.001  0.019
tot  0.000  0.019  0.915  0.934
 
band   3 # energy   -7.75266303 # occ.  2.00000000
 
ion      s      p      d    tot
  1  0.000  0.000  0.914  0.915
  2  0.000  0.019  0.001  0.019
tot  0.000  0.019  0.915  0.934
 
band   4 # energy   -7.75266302 # occ.  2.00000000
 
ion      s      p      d    tot
  1  0.000  0.000  0.914  0.915
  2  0.000  0.019  0.001  0.019
tot  0.000  0.019  0.915  0.934
 
band   5 # energy   -7.48907457 # occ.  2.00000000
 
ion      s      p      d    tot
  1  0.000  0.000  0.951  0.951
  2  0.000  0.000  0.001  0.001
tot  0.000  0.000  0.951  0.951
 
band   6 # energy   -7.48907462 # occ.  2.00000000
 
ion      s      p      d    tot
  1  0.000  0.000  0.951  0.951
  2  0.000  0.000  0.001  0.001
tot  0.000  0.000  0.951  0.951
 
band   7 # energy    1.83148578 # occ.  2.00000000
 
ion      s      p      d    tot
  1  0.000  0.028  0.070  0.098
  2  0.000  0.521  0.001  0.522
tot  0.000  0.549  0.071  0.620
 
band   8 # energy    1.83148577 # occ.  2.00000000
 
ion      s      p      d    tot
  1  0.000  0.028  0.070  0.098
  2  0.000  0.521  0.001  0.522
tot  0.000  0.549  0.071  0.620
 
band   9 # energy    1.83148592 # occ.  2.00000000
 
ion      s      p      d    tot
  1  0.000  0.028  0.070  0.098
  2  0.000  0.521  0.001  0.522
tot  0.000  0.549  0.071  0.620
 
band  10 # energy    3.37571929 # occ.  0.00000000
 
ion      s      p      d    tot
  1  0.295  0.000  0.000  0.295
  2  0.234  0.000  0.000  0.234
tot  0.530  0.000  0.000  0.530
 
band  11 # energy    7.30293922 # occ.  0.00000000
 
ion      s      p      d    tot
  1  0.000  0.235  0.001  0.236
  2  0.000  0.009  0.095  0.104
tot  0.000  0.244  0.096  0.339
 
band  12 # energy    7.30293923 # occ.  0.00000000
 
ion      s      p      d    tot
  1  0.000  0.235  0.001  0.236
  2  0.000  0.009  0.095  0.104
tot  0.000  0.244  0.096  0.339
 
band  13 # energy    7.30293992 # occ.  0.00000000
 
ion      s      p      d    tot
  1  0.000  0.235  0.001  0.236
  2  0.000  0.009  0.095  0.104
tot  0.000  0.244  0.096  0.339
 
band  14 # energy   10.33528852 # occ.  0.00000000
 
ion      s      p      d    tot
  1  0.253  0.000  0.000  0.253
  2  0.004  0.000  0.000  0.004
tot  0.257  0.000  0.000  0.257
 
band  15 # energy   12.17186195 # occ.  0.00000000
 
ion      s      p      d    tot
  1  0.000  0.000  0.093  0.093
  2  0.000  0.000  0.237  0.237
tot  0.000  0.000  0.330  0.330
 
band  16 # energy   12.17198063 # occ.  0.00000000
 
ion      s      p      d    tot
  1  0.000  0.000  0.093  0.093
  2  0.000  0.000  0.237  0.237
tot  0.000  0.000  0.330  0.330
 

 k-point    2 :    0.16666667 0.00000000 0.00000000     weight = 0.03703704

band   1 # energy  -10.20745314 # occ.  2.00000000
 
ion      s      p      d    tot
  1  0.054  0.003  0.026  0.082
  2  0.555  0.000  0.000  0.556
tot  0.609  0.003  0.026  0.638
 
band   2 # energy   -7.73434617 # occ.  2.00000000
 
ion      s      p      d    tot
  1  0.000  0.000  0.917  0.917
  2  0.000  0.018  0.001  0.018
tot  0.000  0.018  0.918  0.936
 
band   3 # energy   -7.73434589 # occ.  2.00000000
 
ion      s      p      d    tot
  1  0.000  0.000  0.917  0.917
  2  0.000  0.018  0.001  0.018
tot  0.000  0.018  0.918  0.936
 
band   4 # energy   -7.65102527 # occ.  2.00000000
 
ion      s      p      d    tot
  1  0.005  0.000  0.889  0.894
  2  0.011  0.018  0.001  0.029
tot  0.016  0.018  0.890  0.923
 
band   5 # energy   -7.49025365 # occ.  2.00000000
 
ion      s      p      d    tot
  1  0.000  0.000  0.950  0.950
  2  0.000  0.000  0.001  0.001
tot  0.000  0.000  0.951  0.951
 
band   6 # energy   -7.49025367 # occ.  2.00000000
 
ion      s      p      d    tot
  1  0.000  0.000  0.950  0.950
  2  0.000  0.000  0.001  0.001
tot  0.000  0.000  0.951  0.951
 
band   7 # energy    0.06739926 # occ.  2.00000000
 
ion      s      p      d    tot
  1  0.097  0.028  0.052  0.177
  2  0.058  0.320  0.002  0.380
tot  0.155  0.348  0.054  0.557
 
band   8 # energy    1.59050835 # occ.  2.00000000
 
ion      s      p      d    tot
  1  0.000  0.039  0.062  0.101
  2  0.000  0.499  0.001  0.501
tot  0.000  0.539  0.064  0.602
 
band   9 # energy    1.59050852 # occ.  2.00000000
 
ion      s      p      d    tot
  1  0.000  0.039  0.062  0.101
  2  0.000  0.499  0.001  0.501
tot  0.000  0.539  0.064  0.602
 
band  10 # energy    4.45940031 # occ.  0.00000000
 
ion      s      p      d    tot
  1  0.226  0.028  0.003  0.257
  2  0.146  0.112  0.008  0.267
tot  0.372  0.141  0.012  0.524
 
band  11 # energy    7.40700236 # occ.  0.00000000
 
ion      s      p      d    tot
  1  0.053  0.120  0.012  0.184
  2  0.016  0.103  0.064  0.182
tot  0.069  0.223  0.075  0.367
 
band  12 # energy    7.66449079 # occ.  0.00000000
 
ion      s      p      d    tot
  1  0.000  0.223  0.006  0.229
  2  0.000  0.029  0.094  0.122
tot  0.000  0.252  0.100  0.352
 
band  13 # energy    7.66449137 # occ.  0.00000000
 
ion      s      p      d    tot
  1  0.000  0.223  0.006  0.229
  2  0.000  0.029  0.094  0.122
tot  0.000  0.252  0.100  0.352
 
band  14 # energy   11.23102448 # occ.  0.00000000
 
ion      s      p      d    tot
  1  0.000  0.007  0.071  0.079
  2  0.000  0.001  0.148  0.149
tot  0.000  0.008  0.219  0.227
 
band  15 # energy   11.23102459 # occ.  0.00000000
 
ion      s      p      d    tot
  1  0.000  0.007  0.071  0.079
  2  0.000  0.001  0.148  0.149
tot  0.000  0.008  0.219  0.227
 
band  16 # energy   11.30382218 # occ.  0.00000000
 
ion      s      p      d    tot
  1  0.117  0.054  0.005  0.176
  2  0.003  0.007  0.009  0.019
tot  0.120  0.061  0.014  0.196
 

 k-point    3 :    0.33333333 0.00000000 0.00000000     weight = 0.03703704

band   1 # energy  -10.01121851 # occ.  2.00000000
 
ion      s      p      d    tot
  1  0.029  0.007  0.098  0.135
  2  0.545  0.000  0.000  0.545
tot  0.574  0.008  0.098  0.680
 
band   2 # energy   -7.70236494 # occ.  2.00000000
 
ion      s      p      d    tot
  1  0.000  0.000  0.922  0.922
  2  0.000  0.015  0.001  0.016
tot  0.000  0.016  0.923  0.938
 
band   3 # energy   -7.70236479 # occ.  2.00000000
 
ion      s      p      d    tot
  1  0.000  0.000  0.922  0.922
  2  0.000  0.015  0.001  0.016
tot  0.000  0.016  0.923  0.938
 
band   4 # energy   -7.48699847 # occ.  2.00000000
 
ion      s      p      d    tot
  1  0.000  0.000  0.951  0.951
  2  0.000  0.000  0.001  0.001
tot  0.000  0.000  0.952  0.952
 
band   5 # energy   -7.48699841 # occ.  2.00000000
 
ion      s      p      d    tot
  1  0.000  0.000  0.951  0.951
  2  0.000  0.000  0.001  0.001
tot  0.000  0.000  0.952  0.952
 
band   6 # energy   -7.32184808 # occ.  2.00000000
 
ion      s      p      d    tot
  1  0.011  0.001  0.831  0.843
  2  0.054  0.011  0.001  0.066
tot  0.066  0.012  0.831  0.909
 
band   7 # energy   -1.98213594 # occ.  2.00000000
 
ion      s      p      d    tot
  1  0.135  0.029  0.030  0.193
  2  0.035  0.264  0.002  0.301
tot  0.170  0.292  0.032  0.494
 
band   8 # energy    1.18168514 # occ.  2.00000000
 
ion      s      p      d    tot
  1  0.000  0.054  0.049  0.103
  2  0.000  0.473  0.002  0.475
tot  0.000  0.528  0.050  0.578
 
band   9 # energy    1.18168538 # occ.  2.00000000
 
ion      s      p      d    tot
  1  0.000  0.054  0.049  0.103
  2  0.000  0.473  0.002  0.475
tot  0.000  0.528  0.050  0.578
 
band  10 # energy    4.56131950 # occ.  0.00000000
 
ion      s      p      d    tot
  1  0.239  0.037  0.005  0.281
  2  0.104  0.048  0.026  0.179
tot  0.344  0.086  0.031  0.460
 
band  11 # energy    7.94275690 # occ.  0.00000000
 
ion      s      p      d    tot
  1  0.000  0.174  0.022  0.196
  2  0.000  0.035  0.093  0.128
tot  0.000  0.209  0.115  0.324
 
band  12 # energy    7.94275732 # occ.  0.00000000
 
ion      s      p      d    tot
  1  0.000  0.174  0.022  0.196
  2  0.000  0.035  0.093  0.128
tot  0.000  0.209  0.115  0.324
 
band  13 # energy    9.03253326 # occ.  0.00000000
 
ion      s      p      d    tot
  1  0.037  0.052  0.014  0.103
  2  0.024  0.244  0.026  0.294
tot  0.061  0.296  0.040  0.397
 
band  14 # energy   10.85298290 # occ.  0.00000000
 
ion      s      p      d    tot
  1  0.092  0.014  0.013  0.119
  2  0.012  0.007  0.010  0.030
tot  0.104  0.021  0.023  0.149
 
band  15 # energy   11.69428452 # occ.  0.00000000
 
ion      s      p      d    tot
  1  0.000  0.042  0.058  0.100
  2  0.000  0.019  0.152  0.171
tot  0.000  0.061  0.209  0.271
 
band  16 # energy   11.69428469 # occ.  0.00000000
 
ion      s      p      d    tot
  1  0.000  0.042  0.058  0.100
  2  0.000  0.019  0.152  0.171
tot  0.000  0.061  0.209  0.271
 

 k-point    4 :    0.50000000 0.00000000 0.00000000     weight = 0.01851852

band   1 # energy   -9.92101745 # occ.  2.00000000
 
ion      s      p      d    tot
  1  0.016  0.010  0.144  0.170
  2  0.533  0.000  0.000  0.533
tot  0.550  0.010  0.144  0.704
 
band   2 # energy   -7.68955671 # occ.  2.00000000
 
ion      s      p      d    tot
  1  0.000  0.000  0.924  0.924
  2  0.000  0.014  0.001  0.015
tot  0.000  0.015  0.925  0.939
 
band   3 # energy   -7.68955666 # occ.  2.00000000
 
ion      s      p      d    tot
  1  0.000  0.000  0.924  0.924
  2  0.000  0.014  0.001  0.015
tot  0.000  0.015  0.925  0.939
 
band   4 # energy   -7.48166132 # occ.  2.00000000
 
ion      s      p      d    tot
  1  0.000  0.000  0.952  0.952
  2  0.000  0.000  0.001  0.001
tot  0.000  0.000  0.953  0.953
 
band   5 # energy   -7.48166133 # occ.  2.00000000
 
ion      s      p      d    tot
  1  0.000  0.000  0.952  0.952
  2  0.000  0.000  0.001  0.001
tot  0.000  0.000  0.953  0.953
 
band   6 # energy   -7.04399463 # occ.  2.00000000
 
ion      s      p      d    tot
  1  0.007  0.003  0.811  0.820
  2  0.097  0.001  0.001  0.098
tot  0.104  0.003  0.812  0.918
 
band   7 # energy   -2.90690252 # occ.  2.00000000
 
ion      s      p      d    tot
  1  0.157  0.026  0.000  0.183
  2  0.006  0.257  0.001  0.265
tot  0.163  0.284  0.002  0.448
 
band   8 # energy    1.00268765 # occ.  2.00000000
 
ion      s      p      d    tot
  1  0.000  0.060  0.043  0.103
  2  0.000  0.465  0.001  0.466
tot  0.000  0.525  0.044  0.569
 
band   9 # energy    1.00268791 # occ.  2.00000000
 
ion      s      p      d    tot
  1  0.000  0.060  0.043  0.103
  2  0.000  0.465  0.001  0.466
tot  0.000  0.525  0.044  0.569
 
band  10 # energy    4.44287853 # occ.  0.00000000
 
ion      s      p      d    tot
  1  0.248  0.029  0.009  0.286
  2  0.098  0.037  0.030  0.165
tot  0.346  0.066  0.038  0.451
 
band  11 # energy    7.88472738 # occ.  0.00000000
 
ion      s      p      d    tot
  1  0.000  0.146  0.030  0.177
  2  0.000  0.030  0.093  0.124
tot  0.000  0.177  0.123  0.300
 
band  12 # energy    7.88472773 # occ.  0.00000000
 
ion      s      p      d    tot
  1  0.000  0.146  0.030  0.177
  2  0.000  0.030  0.093  0.124
tot  0.000  0.177  0.123  0.300
 
band  13 # energy    9.80964862 # occ.  0.00000000
 
ion      s      p      d    tot
  1  0.001  0.030  0.023  0.054
  2  0.000  0.149  0.001  0.151
tot  0.002  0.179  0.024  0.205
 
band  14 # energy   11.57942066 # occ.  0.00000000
 
ion      s      p      d    tot
  1  0.124  0.001  0.000  0.126
  2  0.003  0.227  0.008  0.238
tot  0.127  0.229  0.008  0.364
 
band  15 # energy   13.24811242 # occ.  0.00000000
 
ion      s      p      d    tot
  1  0.000  0.097  0.019  0.117
  2  0.000  0.033  0.180  0.213
tot  0.000  0.130  0.200  0.329
 
band  16 # energy   13.24847227 # occ.  0.00000000
 
ion      s      p      d    tot
  1  0.000  0.097  0.019  0.116
  2  0.000  0.032  0.181  0.214
tot  0.000  0.129  0.201  0.330
 

 k-point    5 :    0.16666667 0.16666667 0.00000000     weight = 0.02777778

band   1 # energy  -10.17390411 # occ.  2.00000000
 
ion      s      p      d    tot
  1  0.050  0.003  0.035  0.089
  2  0.555  0.000  0.000  0.555
tot  0.605  0.004  0.035  0.644
 
band   2 # energy   -7.71577258 # occ.  2.00000000
 
ion      s      p      d    tot
  1  0.000  0.000  0.920  0.920
  2  0.000  0.016  0.001  0.017
tot  0.000  0.017  0.921  0.937
 
band   3 # energy   -7.71577233 # occ.  2.00000000
 
ion      s      p      d    tot
  1  0.000  0.000  0.920  0.920
  2  0.000  0.016  0.001  0.017
tot  0.000  0.017  0.921  0.937
 
band   4 # energy   -7.64639400 # occ.  2.00000000
 
ion      s      p      d    tot
  1  0.006  0.000  0.879  0.885
  2  0.013  0.019  0.000  0.032
tot  0.019  0.019  0.880  0.918
 
band   5 # energy   -7.49480313 # occ.  2.00000000
 
ion      s      p      d    tot
  1  0.000  0.000  0.945  0.946
  2  0.002  0.000  0.001  0.003
tot  0.002  0.000  0.946  0.949
 
band   6 # energy   -7.48191653 # occ.  2.00000000
 
ion      s      p      d    tot
  1  0.000  0.000  0.952  0.952
  2  0.000  0.000  0.001  0.001
tot  0.000  0.000  0.952  0.952
 
band   7 # energy    0.08561429 # occ.  2.00000000
 
ion      s      p      d    tot
  1  0.127  0.015  0.058  0.200
  2  0.074  0.305  0.002  0.381
tot  0.201  0.320  0.060  0.581
 
band   8 # energy    1.19160699 # occ.  2.00000000
 
ion      s      p      d    tot
  1  0.000  0.052  0.053  0.104
  2  0.000  0.463  0.002  0.465
tot  0.000  0.515  0.055  0.570
 
band   9 # energy    1.19160706 # occ.  2.00000000
 
ion      s      p      d    tot
  1  0.000  0.052  0.053  0.104
  2  0.000  0.463  0.002  0.465
tot  0.000  0.515  0.055  0.570
 
band  10 # energy    5.11856517 # occ.  0.00000000
 
ion      s      p      d    tot
  1  0.214  0.009  0.011  0.233
  2  0.121  0.216  0.004  0.340
tot  0.334  0.225  0.015  0.574
 
band  11 # energy    6.33754019 # occ.  0.00000000
 
ion      s      p      d    tot
  1  0.045  0.157  0.004  0.206
  2  0.015  0.002  0.068  0.084
tot  0.060  0.159  0.072  0.290
 
band  12 # energy    8.31226076 # occ.  0.00000000
 
ion      s      p      d    tot
  1  0.000  0.206  0.010  0.217
  2  0.000  0.074  0.096  0.169
tot  0.000  0.280  0.106  0.386
 
band  13 # energy    8.31226114 # occ.  0.00000000
 
ion      s      p      d    tot
  1  0.000  0.206  0.010  0.217
  2  0.000  0.074  0.096  0.169
tot  0.000  0.280  0.106  0.386
 
band  14 # energy    9.85958031 # occ.  0.00000000
 
ion      s      p      d    tot
  1  0.001  0.006  0.060  0.067
  2  0.009  0.010  0.088  0.107
tot  0.010  0.016  0.148  0.174
 
band  15 # energy   12.15132003 # occ.  0.00000000
 
ion      s      p      d    tot
  1  0.170  0.092  0.004  0.267
  2  0.000  0.005  0.028  0.033
tot  0.170  0.097  0.032  0.299
 
band  16 # energy   12.42911521 # occ.  0.00000000
 
ion      s      p      d    tot
  1  0.000  0.000  0.082  0.082
  2  0.000  0.000  0.246  0.246
tot  0.000  0.000  0.329  0.329
 

 k-point    6 :    0.33333333 0.16666667 0.00000000     weight = 0.11111111

band   1 # energy  -10.01172984 # occ.  2.00000000
 
ion      s      p      d    tot
  1  0.029  0.008  0.095  0.132
  2  0.546  0.000  0.000  0.546
tot  0.575  0.008  0.095  0.679
 
band   2 # energy   -7.68995887 # occ.  2.00000000
 
ion      s      p      d    tot
  1  0.000  0.000  0.923  0.923
  2  0.000  0.015  0.001  0.016
tot  0.000  0.015  0.923  0.939
 
band   3 # energy   -7.68000610 # occ.  2.00000000
 
ion      s      p      d    tot
  1  0.000  0.000  0.926  0.926
  2  0.000  0.014  0.001  0.015
tot  0.000  0.014  0.927  0.941
 
band   4 # energy   -7.53001752 # occ.  2.00000000
 
ion      s      p      d    tot
  1  0.001  0.000  0.931  0.933
  2  0.003  0.005  0.001  0.008
tot  0.004  0.005  0.932  0.940
 
band   5 # energy   -7.47670253 # occ.  2.00000000
 
ion      s      p      d    tot
  1  0.000  0.000  0.953  0.953
  2  0.000  0.000  0.000  0.000
tot  0.000  0.000  0.953  0.953
 
band   6 # energy   -7.35792910 # occ.  2.00000000
 
ion      s      p      d    tot
  1  0.011  0.001  0.842  0.853
  2  0.047  0.011  0.001  0.058
tot  0.058  0.011  0.842  0.912
 
band   7 # energy   -1.46919237 # occ.  2.00000000
 
ion      s      p      d    tot
  1  0.149  0.021  0.043  0.213
  2  0.051  0.268  0.002  0.320
tot  0.200  0.289  0.045  0.533
 
band   8 # energy    0.65693364 # occ.  2.00000000
 
ion      s      p      d    tot
  1  0.019  0.056  0.043  0.118
  2  0.006  0.412  0.003  0.421
tot  0.026  0.468  0.046  0.539
 
band   9 # energy    0.75151748 # occ.  2.00000000
 
ion      s      p      d    tot
  1  0.000  0.063  0.040  0.104
  2  0.000  0.439  0.002  0.441
tot  0.000  0.503  0.042  0.545
 
band  10 # energy    5.53302165 # occ.  0.00000000
 
ion      s      p      d    tot
  1  0.204  0.033  0.013  0.249
  2  0.065  0.149  0.028  0.243
tot  0.269  0.182  0.041  0.492
 
band  11 # energy    6.70475355 # occ.  0.00000000
 
ion      s      p      d    tot
  1  0.055  0.120  0.011  0.186
  2  0.035  0.079  0.049  0.163
tot  0.090  0.198  0.061  0.349
 
band  12 # energy    8.39944033 # occ.  0.00000000
 
ion      s      p      d    tot
  1  0.000  0.087  0.032  0.119
  2  0.009  0.065  0.076  0.150
tot  0.010  0.152  0.108  0.270
 
band  13 # energy    8.90472418 # occ.  0.00000000
 
ion      s      p      d    tot
  1  0.000  0.172  0.021  0.192
  2  0.000  0.086  0.097  0.184
tot  0.000  0.258  0.118  0.376
 
band  14 # energy   10.71589565 # occ.  0.00000000
 
ion      s      p      d    tot
  1  0.013  0.073  0.038  0.124
  2  0.013  0.124  0.079  0.215
tot  0.025  0.197  0.117  0.339
 
band  15 # energy   12.61216432 # occ.  0.00000000
 
ion      s      p      d    tot
  1  0.000  0.029  0.059  0.088
  2  0.000  0.013  0.205  0.218
tot  0.000  0.042  0.264  0.306
 
band  16 # energy   12.63201776 # occ.  0.00000000
 
ion      s      p      d    tot
  1  0.059  0.045  0.023  0.126
  2  0.003  0.004  0.050  0.058
tot  0.062  0.049  0.073  0.184
 

 k-point    7 :    0.50000000 0.16666667 0.00000000     weight = 0.11111111

band   1 # energy   -9.89317568 # occ.  2.00000000
 
ion      s      p      d    tot
  1  0.012  0.011  0.156  0.179
  2  0.531  0.000  0.000  0.531
tot  0.543  0.011  0.156  0.710
 
band   2 # energy   -7.67474220 # occ.  2.00000000
 
ion      s      p      d    tot
  1  0.000  0.000  0.925  0.926
  2  0.000  0.013  0.001  0.014
tot  0.000  0.013  0.926  0.940
 
band   3 # energy   -7.66440812 # occ.  2.00000000
 
ion      s      p      d    tot
  1  0.000  0.000  0.928  0.928
  2  0.000  0.013  0.001  0.014
tot  0.000  0.013  0.929  0.942
 
band   4 # energy   -7.50466153 # occ.  2.00000000
 
ion      s      p      d    tot
  1  0.000  0.000  0.947  0.947
  2  0.000  0.001  0.001  0.001
tot  0.000  0.001  0.948  0.949
 
band   5 # energy   -7.47864376 # occ.  2.00000000
 
ion      s      p      d    tot
  1  0.000  0.000  0.952  0.952
  2  0.000  0.000  0.000  0.000
tot  0.000  0.000  0.953  0.953
 
band   6 # energy   -7.00972209 # occ.  2.00000000
 
ion      s      p      d    tot
  1  0.008  0.003  0.796  0.806
  2  0.104  0.003  0.001  0.107
tot  0.111  0.006  0.796  0.914
 
band   7 # energy   -2.66849224 # occ.  2.00000000
 
ion      s      p      d    tot
  1  0.173  0.022  0.007  0.202
  2  0.011  0.257  0.002  0.270
tot  0.184  0.279  0.010  0.472
 
band   8 # energy    0.09684661 # occ.  2.00000000
 
ion      s      p      d    tot
  1  0.031  0.058  0.036  0.125
  2  0.009  0.375  0.003  0.387
tot  0.040  0.433  0.039  0.511
 
band   9 # energy    0.66039615 # occ.  2.00000000
 
ion      s      p      d    tot
  1  0.000  0.067  0.036  0.102
  2  0.000  0.440  0.001  0.442
tot  0.000  0.507  0.037  0.544
 
band  10 # energy    5.43062464 # occ.  0.00000000
 
ion      s      p      d    tot
  1  0.200  0.038  0.014  0.253
  2  0.064  0.116  0.033  0.213
tot  0.264  0.154  0.048  0.466
 
band  11 # energy    7.36939943 # occ.  0.00000000
 
ion      s      p      d    tot
  1  0.032  0.087  0.025  0.145
  2  0.009  0.083  0.063  0.154
tot  0.041  0.170  0.088  0.299
 
band  12 # energy    8.68885024 # occ.  0.00000000
 
ion      s      p      d    tot
  1  0.000  0.140  0.030  0.170
  2  0.000  0.063  0.097  0.160
tot  0.000  0.203  0.127  0.330
 
band  13 # energy    9.35645115 # occ.  0.00000000
 
ion      s      p      d    tot
  1  0.025  0.076  0.028  0.129
  2  0.018  0.153  0.054  0.225
tot  0.042  0.229  0.082  0.354
 
band  14 # energy   11.67440609 # occ.  0.00000000
 
ion      s      p      d    tot
  1  0.009  0.070  0.028  0.107
  2  0.003  0.102  0.036  0.141
tot  0.011  0.172  0.064  0.247
 
band  15 # energy   12.92442472 # occ.  0.00000000
 
ion      s      p      d    tot
  1  0.061  0.037  0.022  0.120
  2  0.008  0.087  0.039  0.134
tot  0.069  0.124  0.061  0.253
 
band  16 # energy   13.33056519 # occ.  0.00000000
 
ion      s      p      d    tot
  1  0.000  0.089  0.028  0.117
  2  0.000  0.026  0.204  0.230
tot  0.000  0.115  0.232  0.347
 

 k-point    8 :   -0.33333333 0.16666667 0.00000000     weight = 0.11111111

band   1 # energy   -9.92179934 # occ.  2.00000000
 
ion      s      p      d    tot
  1  0.016  0.010  0.141  0.167
  2  0.535  0.000  0.000  0.535
tot  0.551  0.010  0.141  0.702
 
band   2 # energy   -7.67850664 # occ.  2.00000000
 
ion      s      p      d    tot
  1  0.000  0.000  0.926  0.926
  2  0.000  0.014  0.001  0.015
tot  0.000  0.014  0.927  0.941
 
band   3 # energy   -7.67602404 # occ.  2.00000000
 
ion      s      p      d    tot
  1  0.000  0.000  0.926  0.926
  2  0.000  0.013  0.001  0.014
tot  0.000  0.013  0.927  0.940
 
band   4 # energy   -7.49287240 # occ.  2.00000000
 
ion      s      p      d    tot
  1  0.000  0.000  0.950  0.950
  2  0.000  0.000  0.001  0.001
tot  0.000  0.000  0.951  0.951
 
band   5 # energy   -7.49131441 # occ.  2.00000000
 
ion      s      p      d    tot
  1  0.000  0.000  0.949  0.949
  2  0.000  0.000  0.001  0.001
tot  0.000  0.000  0.950  0.950
 
band   6 # energy   -7.10351447 # occ.  2.00000000
 
ion      s      p      d    tot
  1  0.010  0.002  0.803  0.815
  2  0.087  0.007  0.001  0.095
tot  0.098  0.009  0.803  0.910
 
band   7 # energy   -2.37799537 # occ.  2.00000000
 
ion      s      p      d    tot
  1  0.165  0.023  0.018  0.205
  2  0.023  0.258  0.002  0.283
tot  0.188  0.281  0.020  0.489
 
band   8 # energy   -0.05287581 # occ.  2.00000000
 
ion      s      p      d    tot
  1  0.027  0.061  0.034  0.121
  2  0.007  0.368  0.003  0.378
tot  0.033  0.429  0.036  0.498
 
band   9 # energy    0.97880967 # occ.  2.00000000
 
ion      s      p      d    tot
  1  0.000  0.060  0.043  0.103
  2  0.000  0.461  0.002  0.462
tot  0.000  0.521  0.045  0.566
 
band  10 # energy    5.50920317 # occ.  0.00000000
 
ion      s      p      d    tot
  1  0.214  0.043  0.009  0.267
  2  0.072  0.120  0.031  0.223
tot  0.286  0.164  0.040  0.490
 
band  11 # energy    7.60704103 # occ.  0.00000000
 
ion      s      p      d    tot
  1  0.016  0.084  0.028  0.128
  2  0.006  0.075  0.066  0.147
tot  0.021  0.159  0.094  0.275
 
band  12 # energy    8.38667332 # occ.  0.00000000
 
ion      s      p      d    tot
  1  0.000  0.166  0.022  0.188
  2  0.000  0.049  0.093  0.142
tot  0.000  0.215  0.115  0.330
 
band  13 # energy    9.13161525 # occ.  0.00000000
 
ion      s      p      d    tot
  1  0.040  0.059  0.022  0.120
  2  0.024  0.212  0.039  0.275
tot  0.063  0.271  0.061  0.395
 
band  14 # energy   11.26081765 # occ.  0.00000000
 
ion      s      p      d    tot
  1  0.000  0.044  0.061  0.105
  2  0.000  0.015  0.147  0.162
tot  0.000  0.059  0.208  0.268
 
band  15 # energy   12.08180180 # occ.  0.00000000
 
ion      s      p      d    tot
  1  0.029  0.113  0.016  0.158
  2  0.004  0.042  0.034  0.079
tot  0.032  0.155  0.050  0.238
 
band  16 # energy   13.22916210 # occ.  0.00000000
 
ion      s      p      d    tot
  1  0.030  0.051  0.034  0.115
  2  0.022  0.032  0.072  0.127
tot  0.053  0.083  0.106  0.242
 

 k-point    9 :   -0.16666667 0.16666667 0.00000000     weight = 0.05555556

band   1 # energy  -10.07503378 # occ.  2.00000000
 
ion      s      p      d    tot
  1  0.038  0.006  0.070  0.114
  2  0.551  0.000  0.000  0.551
tot  0.588  0.006  0.070  0.664
 
band   2 # energy   -7.71358272 # occ.  2.00000000
 
ion      s      p      d    tot
  1  0.000  0.000  0.920  0.921
  2  0.000  0.016  0.001  0.017
tot  0.000  0.017  0.921  0.938
 
band   3 # energy   -7.69868366 # occ.  2.00000000
 
ion      s      p      d    tot
  1  0.000  0.000  0.923  0.923
  2  0.000  0.015  0.001  0.015
tot  0.000  0.015  0.923  0.938
 
band   4 # energy   -7.51270000 # occ.  2.00000000
 
ion      s      p      d    tot
  1  0.004  0.000  0.906  0.911
  2  0.012  0.008  0.000  0.021
tot  0.016  0.009  0.906  0.931
 
band   5 # energy   -7.49832807 # occ.  2.00000000
 
ion      s      p      d    tot
  1  0.000  0.000  0.949  0.949
  2  0.000  0.000  0.001  0.001
tot  0.000  0.000  0.950  0.950
 
band   6 # energy   -7.44607730 # occ.  2.00000000
 
ion      s      p      d    tot
  1  0.006  0.000  0.894  0.900
  2  0.022  0.008  0.001  0.030
tot  0.029  0.008  0.894  0.931
 
band   7 # energy   -1.01437617 # occ.  2.00000000
 
ion      s      p      d    tot
  1  0.135  0.023  0.047  0.205
  2  0.059  0.278  0.002  0.339
tot  0.194  0.302  0.049  0.544
 
band   8 # energy    0.51541658 # occ.  2.00000000
 
ion      s      p      d    tot
  1  0.012  0.060  0.041  0.113
  2  0.001  0.403  0.003  0.407
tot  0.013  0.463  0.044  0.520
 
band   9 # energy    1.45966907 # occ.  2.00000000
 
ion      s      p      d    tot
  1  0.000  0.046  0.057  0.102
  2  0.000  0.494  0.001  0.496
tot  0.000  0.540  0.058  0.598
 
band  10 # energy    5.35017374 # occ.  0.00000000
 
ion      s      p      d    tot
  1  0.224  0.040  0.003  0.267
  2  0.105  0.152  0.016  0.273
tot  0.329  0.192  0.019  0.540
 
band  11 # energy    7.35189069 # occ.  0.00000000
 
ion      s      p      d    tot
  1  0.047  0.101  0.020  0.167
  2  0.023  0.096  0.060  0.180
tot  0.070  0.197  0.080  0.347
 
band  12 # energy    7.92162192 # occ.  0.00000000
 
ion      s      p      d    tot
  1  0.000  0.223  0.007  0.230
  2  0.000  0.028  0.092  0.120
tot  0.000  0.251  0.099  0.350
 
band  13 # energy    8.21278800 # occ.  0.00000000
 
ion      s      p      d    tot
  1  0.004  0.109  0.019  0.132
  2  0.002  0.104  0.071  0.177
tot  0.006  0.213  0.090  0.309
 
band  14 # energy   10.43155219 # occ.  0.00000000
 
ion      s      p      d    tot
  1  0.000  0.001  0.072  0.074
  2  0.000  0.002  0.134  0.136
tot  0.000  0.003  0.207  0.210
 
band  15 # energy   11.83762582 # occ.  0.00000000
 
ion      s      p      d    tot
  1  0.002  0.091  0.043  0.136
  2  0.009  0.053  0.073  0.135
tot  0.010  0.144  0.117  0.271
 
band  16 # energy   12.71164844 # occ.  0.00000000
 
ion      s      p      d    tot
  1  0.106  0.082  0.005  0.193
  2  0.001  0.020  0.041  0.062
tot  0.107  0.102  0.046  0.255
 

 k-point   10 :    0.33333333 0.33333333 0.00000000     weight = 0.02777778

band   1 # energy   -9.92118841 # occ.  2.00000000
 
ion      s      p      d    tot
  1  0.017  0.010  0.137  0.163
  2  0.537  0.000  0.000  0.537
tot  0.554  0.010  0.137  0.700
 
band   2 # energy   -7.63638388 # occ.  2.00000000
 
ion      s      p      d    tot
  1  0.000  0.000  0.933  0.934
  2  0.000  0.011  0.001  0.012
tot  0.000  0.011  0.934  0.946
 
band   3 # energy   -7.63638363 # occ.  2.00000000
 
ion      s      p      d    tot
  1  0.000  0.000  0.933  0.934
  2  0.000  0.011  0.001  0.012
tot  0.000  0.011  0.934  0.946
 
band   4 # energy   -7.56832662 # occ.  2.00000000
 
ion      s      p      d    tot
  1  0.002  0.000  0.924  0.925
  2  0.002  0.007  0.000  0.009
tot  0.003  0.007  0.924  0.934
 
band   5 # energy   -7.46757480 # occ.  2.00000000
 
ion      s      p      d    tot
  1  0.000  0.000  0.954  0.954
  2  0.000  0.000  0.000  0.000
tot  0.000  0.000  0.954  0.954
 
band   6 # energy   -7.20887057 # occ.  2.00000000
 
ion      s      p      d    tot
  1  0.011  0.002  0.800  0.813
  2  0.077  0.009  0.001  0.087
tot  0.089  0.011  0.800  0.900
 
band   7 # energy   -1.85401377 # occ.  2.00000000
 
ion      s      p      d    tot
  1  0.193  0.007  0.048  0.247
  2  0.045  0.252  0.003  0.300
tot  0.237  0.259  0.051  0.547
 
band   8 # energy    0.22923824 # occ.  2.00000000
 
ion      s      p      d    tot
  1  0.000  0.073  0.027  0.100
  2  0.000  0.413  0.001  0.414
tot  0.000  0.486  0.028  0.514
 
band   9 # energy    0.22923833 # occ.  2.00000000
 
ion      s      p      d    tot
  1  0.000  0.073  0.027  0.100
  2  0.000  0.413  0.001  0.414
tot  0.000  0.486  0.028  0.514
 
band  10 # energy    5.32574701 # occ.  0.00000000
 
ion      s      p      d    tot
  1  0.117  0.074  0.021  0.212
  2  0.011  0.029  0.056  0.095
tot  0.128  0.102  0.077  0.307
 
band  11 # energy    5.76366458 # occ.  0.00000000
 
ion      s      p      d    tot
  1  0.113  0.039  0.026  0.179
  2  0.050  0.106  0.032  0.188
tot  0.163  0.145  0.059  0.367
 
band  12 # energy   10.12654055 # occ.  0.00000000
 
ion      s      p      d    tot
  1  0.051  0.005  0.031  0.087
  2  0.045  0.188  0.038  0.271
tot  0.096  0.193  0.069  0.358
 
band  13 # energy   10.41089053 # occ.  0.00000000
 
ion      s      p      d    tot
  1  0.000  0.178  0.018  0.197
  2  0.000  0.141  0.095  0.236
tot  0.000  0.319  0.114  0.433
 
band  14 # energy   10.41089102 # occ.  0.00000000
 
ion      s      p      d    tot
  1  0.000  0.178  0.018  0.197
  2  0.000  0.141  0.095  0.236
tot  0.000  0.319  0.114  0.433
 
band  15 # energy   13.13610896 # occ.  0.00000000
 
ion      s      p      d    tot
  1  0.000  0.000  0.047  0.047
  2  0.000  0.000  0.285  0.285
tot  0.000  0.000  0.332  0.332
 