 vasp.5.4.1 24Jun15 (build Nov 25 2015 16:01:35) complex                        
  
 executed on         CrayXC-Intel date 2016.06.02  11:42:52
 running on   96 total cores
 distrk:  each k-point on   24 cores,    4 groups
 distr:  one band on NCORES_PER_BAND=   6 cores,    4 groups


--------------------------------------------------------------------------------------------------------


 INCAR:
 POTCAR:    PAW_PBE Ga_d 06Jul2010                
 POTCAR:    PAW_PBE As 22Sep2009                  

 ----------------------------------------------------------------------------- 
|                                                                             |
|           W    W    AA    RRRRR   N    N  II  N    N   GGGG   !!!           |
|           W    W   A  A   R    R  NN   N  II  NN   N  G    G  !!!           |
|           W    W  A    A  R    R  N N  N  II  N N  N  G       !!!           |
|           W WW W  AAAAAA  RRRRR   N  N N  II  N  N N  G  GGG   !            |
|           WW  WW  A    A  R   R   N   NN  II  N   NN  G    G                |
|           W    W  A    A  R    R  N    N  II  N    N   GGGG   !!!           |
|                                                                             |
|      You have enabled k-point parallelism (KPAR>1).                         |
|      This developmental code was originally  written by Paul Kent at ORNL,  |
|      and carefully double checked in Vienna.                                |
|      GW as well as linear response parallelism added by Martijn Marsman     |
|      and Georg Kresse.                                                      |
|      Carefully verify results versus KPAR=1.                                |
|      Report problems to Paul Kent and Vienna.                               |
|                                                                             |
 ----------------------------------------------------------------------------- 


 ----------------------------------------------------------------------------- 
|                                                                             |
|           W    W    AA    RRRRR   N    N  II  N    N   GGGG   !!!           |
|           W    W   A  A   R    R  NN   N  II  NN   N  G    G  !!!           |
|           W    W  A    A  R    R  N N  N  II  N N  N  G       !!!           |
|           W WW W  AAAAAA  RRRRR   N  N N  II  N  N N  G  GGG   !            |
|           WW  WW  A    A  R   R   N   NN  II  N   NN  G    G                |
|           W    W  A    A  R    R  N    N  II  N    N   GGGG   !!!           |
|                                                                             |
|      You have selected ISYM=2 for HF type calculation. This will symmetrize |
|      the charge density but not the exchange potential.                     |
|      I suggest to use ISYM=3 instead. This uses symmetry to obtain          |
|      the orbitals at all k-points in the Brillouine zone, but does not      |
|      apply symmetry to the Hartree potential directly.                      |
|      The resultant charge might have lower symmetry than the crystal,       |
|      but at least, Hartree and exchange are fully compatible.               |
|                                                                             |
 ----------------------------------------------------------------------------- 

 POTCAR:    PAW_PBE Ga_d 06Jul2010                
   VRHFIN =Ga: s2p1                                                             
   LEXCH  = PE                                                                  
   EATOM  =  2148.8298 eV,  157.9345 Ry                                         
                                                                                
   TITEL  = PAW_PBE Ga_d 06Jul2010                                              
   LULTRA =        F    use ultrasoft PP ?                                      
   IUNSCR =        1    unscreen: 0-lin 1-nonlin 2-no                           
   RPACOR =    1.700    partial core radius                                     
   POMASS =   69.723; ZVAL   =   13.000    mass and valenz                      
   RCORE  =    2.300    outmost cutoff radius                                   
   RWIGS  =    2.300; RWIGS  =    1.217    wigner-seitz radius (au A)           
   ENMAX  =  282.691; ENMIN  =  212.018 eV                                      
   ICORE  =        3    local potential                                         
   LCOR   =        T    correct aug charges                                     
   LPAW   =        T    paw PP                                                  
   EAUG   =  490.690                                                            
   DEXC   =    0.000                                                            
   RMAX   =    2.341    core radius for proj-oper                               
   RAUG   =    1.300    factor for augmentation sphere                          
   RDEP   =    2.413    radius for radial grids                                 
   RDEPT  =    1.856    core radius for aug-charge                              
                                                                                
   Atomic configuration                                                         
    9 entries                                                                   
     n  l   j            E        occ.                                          
     1  0  0.50    -10228.7831   2.0000                                         
     2  0  0.50     -1262.1604   2.0000                                         
     2  1  1.50     -1098.6333   6.0000                                         
     3  0  0.50      -148.1110   2.0000                                         
     3  1  1.50       -98.8436   6.0000                                         
     3  2  2.50       -19.1549  10.0000                                         
     4  0  0.50        -8.9483   2.0000                                         
     4  1  0.50        -2.5791   1.0000                                         
     4  3  2.50        -2.7416   0.0000                                         
   Description                                                                  
     l       E           TYP  RCUT    TYP  RCUT                                 
     2    -19.1549037     23  2.300                                             
     2     -5.4423304     23  2.300                                             
     0     -8.9483111     23  2.300                                             
     0     68.0291300     23  2.300                                             
     1     -2.5790802     23  2.100                                             
     1     81.6349560     23  2.300                                             
     3      6.8029130     23  2.300                                             
  local pseudopotential read in
  partial core-charges read in
  partial kinetic energy density read in
  atomic valenz-charges read in
  non local Contribution for L=           2  read in
    real space projection operators read in
  non local Contribution for L=           2  read in
    real space projection operators read in
  non local Contribution for L=           0  read in
    real space projection operators read in
  non local Contribution for L=           0  read in
    real space projection operators read in
  non local Contribution for L=           1  read in
    real space projection operators read in
  non local Contribution for L=           1  read in
    real space projection operators read in
    PAW grid and wavefunctions read in
 
   number of l-projection  operators is LMAX  =           6
   number of lm-projection operators is LMMAX =          18
 
 POTCAR:    PAW_PBE As 22Sep2009                  
   VRHFIN =As: s2p3                                                             
   LEXCH  = PE                                                                  
   EATOM  =   170.1867 eV,   12.5084 Ry                                         
                                                                                
   TITEL  = PAW_PBE As 22Sep2009                                                
   LULTRA =        F    use ultrasoft PP ?                                      
   IUNSCR =        1    unscreen: 0-lin 1-nonlin 2-no                           
   RPACOR =    1.900    partial core radius                                     
   POMASS =   74.922; ZVAL   =    5.000    mass and valenz                      
   RCORE  =    2.100    outmost cutoff radius                                   
   RWIGS  =    2.300; RWIGS  =    1.217    wigner-seitz radius (au A)           
   ENMAX  =  208.702; ENMIN  =  156.526 eV                                      
   ICORE  =        3    local potential                                         
   LCOR   =        T    correct aug charges                                     
   LPAW   =        T    paw PP                                                  
   EAUG   =  462.758                                                            
   DEXC   =    0.000                                                            
   RMAX   =    2.144    core radius for proj-oper                               
   RAUG   =    1.300    factor for augmentation sphere                          
   RDEP   =    2.140    radius for radial grids                                 
   RDEPT  =    1.956    core radius for aug-charge                              
                                                                                
   Atomic configuration                                                         
   10 entries                                                                   
     n  l   j            E        occ.                                          
     1  0  0.50    -11718.0418   2.0000                                         
     2  0  0.50     -1486.5454   2.0000                                         
     2  1  1.50     -1303.3889   6.0000                                         
     3  0  0.50      -190.2849   2.0000                                         
     3  1  1.50      -133.6555   6.0000                                         
     3  2  2.50       -40.6443  10.0000                                         
     4  0  0.50       -14.4936   2.0000                                         
     4  1  0.50        -5.1947   3.0000                                         
     4  2  1.50        -5.4423   0.0000                                         
     4  3  2.50        -5.4423   0.0000                                         
   Description                                                                  
     l       E           TYP  RCUT    TYP  RCUT                                 
     0    -14.4935570     23  2.100                                             
     0    -11.9212055     23  2.100                                             
     1     -5.1947127     23  2.100                                             
     1     27.2116520     23  2.100                                             
     2     -5.4423304     23  2.100                                             
     3     -1.3605826      7  2.100                                             
  local pseudopotential read in
  partial core-charges read in
  partial kinetic energy density read in
  atomic valenz-charges read in
  non local Contribution for L=           0  read in
    real space projection operators read in
  non local Contribution for L=           0  read in
    real space projection operators read in
  non local Contribution for L=           1  read in
    real space projection operators read in
  non local Contribution for L=           1  read in
    real space projection operators read in
  non local Contribution for L=           2  read in
    real space projection operators read in
    PAW grid and wavefunctions read in
 
   number of l-projection  operators is LMAX  =           5
   number of lm-projection operators is LMMAX =          13
 
  PAW_PBE Ga_d 06Jul2010                :
 energy of atom  1       EATOM=-2148.8298
 kinetic energy error for atom=    0.0026 (will be added to EATOM!!)
  PAW_PBE As 22Sep2009                  :
 energy of atom  2       EATOM= -170.1867
 kinetic energy error for atom=    0.0005 (will be added to EATOM!!)
 
 
 POSCAR: GaAs (Madelung Handbook, RT)            
  positions in direct lattice
  velocities in cartesian coordinates
 exchange correlation table for  LEXCH =        8
   RHO(1)=    0.500       N(1)  =     2000
   RHO(2)=  100.500       N(2)  =     4000
 


--------------------------------------------------------------------------------------------------------


 ion  position               nearest neighbor table
   1  0.000  0.000  0.000-   2 2.45   2 2.45   2 2.45   2 2.45
   2  0.250  0.250  0.250-   1 2.45   1 2.45   1 2.45   1 2.45
 
  LATTYP: Found a face centered cubic cell.
 ALAT       =     5.6536000000
  
  Lattice vectors:
  
 A1 = (   2.8268000000,   2.8268000000,   0.0000000000)
 A2 = (   2.8268000000,   0.0000000000,  -2.8268000000)
 A3 = (   0.0000000000,   2.8268000000,  -2.8268000000)


Analysis of symmetry for initial positions (statically):
=====================================================================
 Subroutine PRICEL returns:
 Original cell was already a primitive cell.
 

 Routine SETGRP: Setting up the symmetry group for a 
 face centered cubic supercell.


 Subroutine GETGRP returns: Found 24 space group operations
 (whereof 24 operations were pure point group operations)
 out of a pool of 48 trial point group operations.


The static configuration has the point symmetry T_d .


Analysis of symmetry for dynamics (positions and initial velocities):
=====================================================================
 Subroutine PRICEL returns:
 Original cell was already a primitive cell.
 

 Routine SETGRP: Setting up the symmetry group for a 
 face centered cubic supercell.


 Subroutine GETGRP returns: Found 24 space group operations
 (whereof 24 operations were pure point group operations)
 out of a pool of 48 trial point group operations.


The dynamic configuration has the point symmetry T_d .


 Subroutine INISYM returns: Found 24 space group operations
 (whereof 24 operations are pure point group operations),
 and found     1 'primitive' translations

 
 
 KPOINTS: Automatically generated mesh: SCF 16, 0.
  k-points in reciprocal lattice
Space group operators:
 irot       det(A)        alpha          n_x          n_y          n_z        tau_x        tau_y        tau_z
    1     1.000000     0.000000     1.000000     0.000000     0.000000     0.000000     0.000000     0.000000
    2     1.000000   120.000000    -0.577350    -0.577350     0.577350     0.000000     0.000000     0.000000
    3     1.000000   120.000000     0.577350     0.577350    -0.577350     0.000000     0.000000     0.000000
    4    -1.000000    90.000000    -1.000000     0.000000     0.000000     0.000000     0.000000     0.000000
    5    -1.000000   180.000000     0.707107     0.707107     0.000000     0.000000     0.000000     0.000000
    6    -1.000000    90.000000     0.000000     1.000000     0.000000     0.000000     0.000000     0.000000
    7     1.000000   180.000000     1.000000     0.000000     0.000000     0.000000     0.000000     0.000000
    8     1.000000   120.000000     0.577350     0.577350     0.577350     0.000000     0.000000     0.000000
    9     1.000000   120.000000    -0.577350     0.577350     0.577350     0.000000     0.000000     0.000000
   10    -1.000000    90.000000     1.000000     0.000000     0.000000     0.000000     0.000000     0.000000
   11    -1.000000    90.000000     0.000000     0.000000     1.000000     0.000000     0.000000     0.000000
   12    -1.000000   180.000000     0.707107     0.000000    -0.707107     0.000000     0.000000     0.000000
   13     1.000000   120.000000     0.577350    -0.577350    -0.577350     0.000000     0.000000     0.000000
   14     1.000000   120.000000     0.577350    -0.577350     0.577350     0.000000     0.000000     0.000000
   15     1.000000   180.000000     0.000000     0.000000     1.000000     0.000000     0.000000     0.000000
   16    -1.000000    90.000000     0.000000    -1.000000     0.000000     0.000000     0.000000     0.000000
   17    -1.000000   180.000000     0.000000    -0.707107     0.707107     0.000000     0.000000     0.000000
   18    -1.000000    90.000000     0.000000     0.000000    -1.000000     0.000000     0.000000     0.000000
   19     1.000000   120.000000    -0.577350    -0.577350    -0.577350     0.000000     0.000000     0.000000
   20     1.000000   180.000000     0.000000     1.000000     0.000000     0.000000     0.000000     0.000000
   21     1.000000   120.000000    -0.577350     0.577350    -0.577350     0.000000     0.000000     0.000000
   22    -1.000000   180.000000     0.707107    -0.707107     0.000000     0.000000     0.000000     0.000000
   23    -1.000000   180.000000     0.000000     0.707107     0.707107     0.000000     0.000000     0.000000
   24    -1.000000   180.000000     0.707107     0.000000     0.707107     0.000000     0.000000     0.000000

 ----------------------------------------------------------------------------- 
|                                                                             |
|           W    W    AA    RRRRR   N    N  II  N    N   GGGG   !!!           |
|           W    W   A  A   R    R  NN   N  II  NN   N  G    G  !!!           |
|           W    W  A    A  R    R  N N  N  II  N N  N  G       !!!           |
|           W WW W  AAAAAA  RRRRR   N  N N  II  N  N N  G  GGG   !            |
|           WW  WW  A    A  R   R   N   NN  II  N   NN  G    G                |
|           W    W  A    A  R    R  N    N  II  N    N   GGGG   !!!           |
|                                                                             |
|      Your generating k-point grid is not commensurate to the symmetry       |
|      of the lattice.  This can cause   slow convergence with respect        |
|      to k-points for HF type calculations                                   |
|      suggested SOLUTIONS:                                                   |
|       ) if not already the case, use automatic k-point generation           |
|       ) shift your grid to Gamma (G) (e.g. required for hex or fcc lattice) |
|                                                                             |
 ----------------------------------------------------------------------------- 

 
 Subroutine IBZKPT_HF returns following result:
 ==============================================
 
 Found    362 k-points in 1st BZ
 the following    362 k-points will be used (e.g. in the exchange kernel)
 Following reciprocal coordinates:   # in IRBZ
  0.000000  0.000000  0.000000    0.00462963   1 t-inv F
  0.166667  0.000000  0.000000    0.00462963   2 t-inv F
  0.333333  0.000000  0.000000    0.00462963   3 t-inv F
  0.500000  0.000000  0.000000    0.00462963   4 t-inv F
  0.166667  0.166667  0.000000    0.00462963   5 t-inv F
  0.333333  0.166667  0.000000    0.00462963   6 t-inv F
  0.500000  0.166667  0.000000    0.00462963   7 t-inv F
 -0.333333  0.166667  0.000000    0.00462963   8 t-inv F
 -0.166667  0.166667  0.000000    0.00462963   9 t-inv F
  0.333333  0.333333  0.000000    0.00462963  10 t-inv F
  0.500000  0.333333  0.000000    0.00462963  11 t-inv F
 -0.333333  0.333333  0.000000    0.00462963  12 t-inv F
  0.500000  0.500000  0.000000    0.00462963  13 t-inv F
  0.500000  0.333333  0.166667    0.00462963  14 t-inv F
 -0.333333  0.333333  0.166667    0.00462963  15 t-inv F
 -0.333333  0.500000  0.166667    0.00462963  16 t-inv F
  0.000000  0.000000  0.000000    0.00000000  17 t-inv F
  0.014286  0.000000  0.014286    0.00000000  18 t-inv F
  0.028571  0.000000  0.028571    0.00000000  19 t-inv F
  0.042857  0.000000  0.042857    0.00000000  20 t-inv F
  0.057143  0.000000  0.057143    0.00000000  21 t-inv F
  0.071429  0.000000  0.071429    0.00000000  22 t-inv F
  0.085714  0.000000  0.085714    0.00000000  23 t-inv F
  0.100000  0.000000  0.100000    0.00000000  24 t-inv F
  0.114286  0.000000  0.114286    0.00000000  25 t-inv F
  0.128571  0.000000  0.128571    0.00000000  26 t-inv F
  0.142857  0.000000  0.142857    0.00000000  27 t-inv F
  0.157143  0.000000  0.157143    0.00000000  28 t-inv F
  0.171429  0.000000  0.171429    0.00000000  29 t-inv F
  0.185714  0.000000  0.185714    0.00000000  30 t-inv F
  0.200000  0.000000  0.200000    0.00000000  31 t-inv F
  0.214286  0.000000  0.214286    0.00000000  32 t-inv F
  0.228571  0.000000  0.228571    0.00000000  33 t-inv F
  0.242857  0.000000  0.242857    0.00000000  34 t-inv F
  0.257143  0.000000  0.257143    0.00000000  35 t-inv F
  0.271429  0.000000  0.271429    0.00000000  36 t-inv F
  0.285714  0.000000  0.285714    0.00000000  37 t-inv F
  0.300000  0.000000  0.300000    0.00000000  38 t-inv F
  0.314286  0.000000  0.314286    0.00000000  39 t-inv F
  0.328571  0.000000  0.328571    0.00000000  40 t-inv F
  0.342857  0.000000  0.342857    0.00000000  41 t-inv F
  0.357143  0.000000  0.357143    0.00000000  42 t-inv F
  0.371429  0.000000  0.371429    0.00000000  43 t-inv F
  0.385714  0.000000  0.385714    0.00000000  44 t-inv F
  0.400000  0.000000  0.400000    0.00000000  45 t-inv F
  0.414286  0.000000  0.414286    0.00000000  46 t-inv F
  0.428571  0.000000  0.428571    0.00000000  47 t-inv F
  0.442857  0.000000  0.442857    0.00000000  48 t-inv F
  0.457143  0.000000  0.457143    0.00000000  49 t-inv F
  0.471429  0.000000  0.471429    0.00000000  50 t-inv F
  0.485714  0.000000  0.485714    0.00000000  51 t-inv F
  0.500000  0.000000  0.500000    0.00000000  52 t-inv F
  0.494565  0.016304  0.510870    0.00000000  53 t-inv F
  0.489130  0.032609  0.521739    0.00000000  54 t-inv F
  0.483696  0.048913  0.532609    0.00000000  55 t-inv F
  0.478261  0.065217  0.543478    0.00000000  56 t-inv F
  0.472826  0.081522  0.554348    0.00000000  57 t-inv F
  0.467391  0.097826  0.565217    0.00000000  58 t-inv F
  0.461957  0.114130  0.576087    0.00000000  59 t-inv F
  0.456522  0.130435  0.586956    0.00000000  60 t-inv F
  0.451087  0.146739  0.597826    0.00000000  61 t-inv F
  0.445652  0.163043  0.608696    0.00000000  62 t-inv F
  0.440217  0.179348  0.619565    0.00000000  63 t-inv F
  0.434783  0.195652  0.630435    0.00000000  64 t-inv F
  0.429348  0.211957  0.641304    0.00000000  65 t-inv F
  0.423913  0.228261  0.652174    0.00000000  66 t-inv F
  0.418478  0.244565  0.663044    0.00000000  67 t-inv F
  0.413043  0.260870  0.673913    0.00000000  68 t-inv F
  0.407609  0.277174  0.684783    0.00000000  69 t-inv F
  0.402174  0.293478  0.695652    0.00000000  70 t-inv F
  0.396739  0.309783  0.706522    0.00000000  71 t-inv F
  0.391304  0.326087  0.717391    0.00000000  72 t-inv F
  0.385870  0.342391  0.728261    0.00000000  73 t-inv F
  0.380435  0.358696  0.739130    0.00000000  74 t-inv F
  0.375000  0.375000  0.750000    0.00000000  75 t-inv F
  0.366667  0.366667  0.733333    0.00000000  76 t-inv F
  0.358333  0.358333  0.716667    0.00000000  77 t-inv F
  0.350000  0.350000  0.700000    0.00000000  78 t-inv F
  0.341667  0.341667  0.683333    0.00000000  79 t-inv F
  0.333333  0.333333  0.666667    0.00000000  80 t-inv F
  0.325000  0.325000  0.650000    0.00000000  81 t-inv F
  0.316667  0.316667  0.633333    0.00000000  82 t-inv F
  0.308333  0.308333  0.616667    0.00000000  83 t-inv F
  0.300000  0.300000  0.600000    0.00000000  84 t-inv F
  0.291667  0.291667  0.583333    0.00000000  85 t-inv F
  0.283333  0.283333  0.566667    0.00000000  86 t-inv F
  0.275000  0.275000  0.550000    0.00000000  87 t-inv F
  0.266667  0.266667  0.533333    0.00000000  88 t-inv F
  0.258333  0.258333  0.516667    0.00000000  89 t-inv F
  0.250000  0.250000  0.500000    0.00000000  90 t-inv F
  0.241667  0.241667  0.483333    0.00000000  91 t-inv F
  0.233333  0.233333  0.466667    0.00000000  92 t-inv F
  0.225000  0.225000  0.450000    0.00000000  93 t-inv F
  0.216667  0.216667  0.433333    0.00000000  94 t-inv F
  0.208333  0.208333  0.416667    0.00000000  95 t-inv F
  0.200000  0.200000  0.400000    0.00000000  96 t-inv F
  0.191667  0.191667  0.383333    0.00000000  97 t-inv F
  0.183333  0.183333  0.366667    0.00000000  98 t-inv F
  0.175000  0.175000  0.350000    0.00000000  99 t-inv F
  0.166667  0.166667  0.333333    0.00000000 100 t-inv F
  0.158333  0.158333  0.316667    0.00000000 101 t-inv F
  0.150000  0.150000  0.300000    0.00000000 102 t-inv F
  0.141667  0.141667  0.283333    0.00000000 103 t-inv F
  0.133333  0.133333  0.266667    0.00000000 104 t-inv F
  0.125000  0.125000  0.250000    0.00000000 105 t-inv F
  0.116667  0.116667  0.233333    0.00000000 106 t-inv F
  0.108333  0.108333  0.216667    0.00000000 107 t-inv F
  0.100000  0.100000  0.200000    0.00000000 108 t-inv F
  0.091667  0.091667  0.183333    0.00000000 109 t-inv F
  0.083333  0.083333  0.166667    0.00000000 110 t-inv F
  0.075000  0.075000  0.150000    0.00000000 111 t-inv F
  0.066667  0.066667  0.133333    0.00000000 112 t-inv F
  0.058333  0.058333  0.116667    0.00000000 113 t-inv F
  0.050000  0.050000  0.100000    0.00000000 114 t-inv F
  0.041667  0.041667  0.083333    0.00000000 115 t-inv F
  0.033333  0.033333  0.066667    0.00000000 116 t-inv F
  0.025000  0.025000  0.050000    0.00000000 117 t-inv F
  0.016667  0.016667  0.033333    0.00000000 118 t-inv F
  0.008333  0.008333  0.016667    0.00000000 119 t-inv F
  0.000000  0.000000  0.000000    0.00000000 120 t-inv F
  0.011905  0.011905  0.011905    0.00000000 121 t-inv F
  0.023810  0.023810  0.023810    0.00000000 122 t-inv F
  0.035714  0.035714  0.035714    0.00000000 123 t-inv F
  0.047619  0.047619  0.047619    0.00000000 124 t-inv F
  0.059524  0.059524  0.059524    0.00000000 125 t-inv F
  0.071429  0.071429  0.071429    0.00000000 126 t-inv F
  0.083333  0.083333  0.083333    0.00000000 127 t-inv F
  0.095238  0.095238  0.095238    0.00000000 128 t-inv F
  0.107143  0.107143  0.107143    0.00000000 129 t-inv F
  0.119048  0.119048  0.119048    0.00000000 130 t-inv F
  0.130952  0.130952  0.130952    0.00000000 131 t-inv F
  0.142857  0.142857  0.142857    0.00000000 132 t-inv F
  0.154762  0.154762  0.154762    0.00000000 133 t-inv F
  0.166667  0.166667  0.166667    0.00000000 134 t-inv F
  0.178571  0.178571  0.178571    0.00000000 135 t-inv F
  0.190476  0.190476  0.190476    0.00000000 136 t-inv F
  0.202381  0.202381  0.202381    0.00000000 137 t-inv F
  0.214286  0.214286  0.214286    0.00000000 138 t-inv F
  0.226190  0.226190  0.226190    0.00000000 139 t-inv F
  0.238095  0.238095  0.238095    0.00000000 140 t-inv F
  0.250000  0.250000  0.250000    0.00000000 141 t-inv F
  0.261905  0.261905  0.261905    0.00000000 142 t-inv F
  0.273810  0.273810  0.273810    0.00000000 143 t-inv F
  0.285714  0.285714  0.285714    0.00000000 144 t-inv F
  0.297619  0.297619  0.297619    0.00000000 145 t-inv F
  0.309524  0.309524  0.309524    0.00000000 146 t-inv F
  0.321429  0.321429  0.321429    0.00000000 147 t-inv F
  0.333333  0.333333  0.333333    0.00000000 148 t-inv F
  0.345238  0.345238  0.345238    0.00000000 149 t-inv F
  0.357143  0.357143  0.357143    0.00000000 150 t-inv F
  0.369048  0.369048  0.369048    0.00000000 151 t-inv F
  0.380952  0.380952  0.380952    0.00000000 152 t-inv F
  0.392857  0.392857  0.392857    0.00000000 153 t-inv F
  0.404762  0.404762  0.404762    0.00000000 154 t-inv F
  0.416667  0.416667  0.416667    0.00000000 155 t-inv F
  0.428571  0.428571  0.428571    0.00000000 156 t-inv F
  0.440476  0.440476  0.440476    0.00000000 157 t-inv F
  0.452381  0.452381  0.452381    0.00000000 158 t-inv F
  0.464286  0.464286  0.464286    0.00000000 159 t-inv F
  0.476190  0.476190  0.476190    0.00000000 160 t-inv F
  0.488095  0.488095  0.488095    0.00000000 161 t-inv F
  0.500000  0.500000  0.500000    0.00000000 162 t-inv F
  0.000000  0.166667  0.000000    0.00462963   2 t-inv F
  0.000000  0.000000  0.166667    0.00462963   2 t-inv F
 -0.166667 -0.166667 -0.166667    0.00462963   2 t-inv F
  0.000000  0.333333  0.000000    0.00462963   3 t-inv F
  0.000000  0.000000  0.333333    0.00462963   3 t-inv F
 -0.333333 -0.333333 -0.333333    0.00462963   3 t-inv F
  0.000000  0.500000  0.000000    0.00462963   4 t-inv F
  0.000000  0.000000  0.500000    0.00462963   4 t-inv F
 -0.500000 -0.500000 -0.500000    0.00462963   4 t-inv F
  0.000000  0.166667  0.166667    0.00462963   5 t-inv F
  0.166667  0.000000  0.166667    0.00462963   5 t-inv F
 -0.166667 -0.166667  0.000000    0.00462963   5 t-inv F
 -0.166667  0.000000 -0.166667    0.00462963   5 t-inv F
  0.000000 -0.166667 -0.166667    0.00462963   5 t-inv F
  0.000000  0.333333  0.166667    0.00462963   6 t-inv F
  0.166667  0.000000  0.333333    0.00462963   6 t-inv F
 -0.166667 -0.166667  0.166667    0.00462963   6 t-inv F
 -0.333333 -0.166667 -0.333333    0.00462963   6 t-inv F
  0.166667  0.333333  0.000000    0.00462963   6 t-inv F
  0.166667 -0.166667 -0.166667    0.00462963   6 t-inv F
 -0.333333 -0.333333 -0.166667    0.00462963   6 t-inv F
  0.000000  0.166667  0.333333    0.00462963   6 t-inv F
 -0.166667  0.166667 -0.166667    0.00462963   6 t-inv F
 -0.166667 -0.333333 -0.333333    0.00462963   6 t-inv F
  0.333333  0.000000  0.166667    0.00462963   6 t-inv F
  0.000000  0.500000  0.166667    0.00462963   7 t-inv F
  0.166667  0.000000  0.500000    0.00462963   7 t-inv F
 -0.166667 -0.166667  0.333333    0.00462963   7 t-inv F
 -0.500000 -0.333333 -0.500000    0.00462963   7 t-inv F
  0.166667  0.500000  0.000000    0.00462963   7 t-inv F
  0.333333 -0.166667 -0.166667    0.00462963   7 t-inv F
 -0.500000 -0.500000 -0.333333    0.00462963   7 t-inv F
  0.000000  0.166667  0.500000    0.00462963   7 t-inv F
 -0.166667  0.333333 -0.166667    0.00462963   7 t-inv F
 -0.333333 -0.500000 -0.500000    0.00462963   7 t-inv F
  0.500000  0.000000  0.166667    0.00462963   7 t-inv F
  0.000000 -0.333333  0.166667    0.00462963   8 t-inv F
  0.166667  0.000000 -0.333333    0.00462963   8 t-inv F
 -0.166667 -0.166667 -0.500000    0.00462963   8 t-inv F
  0.333333  0.500000  0.333333    0.00462963   8 t-inv F
  0.166667 -0.333333  0.000000    0.00462963   8 t-inv F
 -0.500000 -0.166667 -0.166667    0.00462963   8 t-inv F
  0.333333  0.333333  0.500000    0.00462963   8 t-inv F
  0.000000  0.166667 -0.333333    0.00462963   8 t-inv F
 -0.166667 -0.500000 -0.166667    0.00462963   8 t-inv F
  0.500000  0.333333  0.333333    0.00462963   8 t-inv F
 -0.333333  0.000000  0.166667    0.00462963   8 t-inv F
  0.000000 -0.166667  0.166667    0.00462963   9 t-inv F
  0.166667  0.000000 -0.166667    0.00462963   9 t-inv F
 -0.166667 -0.166667 -0.333333    0.00462963   9 t-inv F
  0.166667  0.333333  0.166667    0.00462963   9 t-inv F
  0.166667 -0.166667  0.000000    0.00462963   9 t-inv F
 -0.333333 -0.166667 -0.166667    0.00462963   9 t-inv F
  0.166667  0.166667  0.333333    0.00462963   9 t-inv F
  0.000000  0.166667 -0.166667    0.00462963   9 t-inv F
 -0.166667 -0.333333 -0.166667    0.00462963   9 t-inv F
  0.333333  0.166667  0.166667    0.00462963   9 t-inv F
 -0.166667  0.000000  0.166667    0.00462963   9 t-inv F
  0.000000  0.333333  0.333333    0.00462963  10 t-inv F
  0.333333  0.000000  0.333333    0.00462963  10 t-inv F
 -0.333333 -0.333333  0.000000    0.00462963  10 t-inv F
 -0.333333  0.000000 -0.333333    0.00462963  10 t-inv F
  0.000000 -0.333333 -0.333333    0.00462963  10 t-inv F
  0.000000  0.500000  0.333333    0.00462963  11 t-inv F
  0.333333  0.000000  0.500000    0.00462963  11 t-inv F
 -0.333333 -0.333333  0.166667    0.00462963  11 t-inv F
 -0.500000 -0.166667 -0.500000    0.00462963  11 t-inv F
  0.333333  0.500000  0.000000    0.00462963  11 t-inv F
  0.166667 -0.333333 -0.333333    0.00462963  11 t-inv F
 -0.500000 -0.500000 -0.166667    0.00462963  11 t-inv F
  0.000000  0.333333  0.500000    0.00462963  11 t-inv F
 -0.333333  0.166667 -0.333333    0.00462963  11 t-inv F
 -0.166667 -0.500000 -0.500000    0.00462963  11 t-inv F
  0.500000  0.000000  0.333333    0.00462963  11 t-inv F
  0.000000 -0.333333  0.333333    0.00462963  12 t-inv F
  0.333333  0.000000 -0.333333    0.00462963  12 t-inv F
 -0.333333 -0.333333 -0.666667    0.00462963  12 t-inv F
  0.333333  0.666667  0.333333    0.00462963  12 t-inv F
  0.333333 -0.333333  0.000000    0.00462963  12 t-inv F
 -0.666667 -0.333333 -0.333333    0.00462963  12 t-inv F
  0.333333  0.333333  0.666667    0.00462963  12 t-inv F
  0.000000  0.333333 -0.333333    0.00462963  12 t-inv F
 -0.333333 -0.666667 -0.333333    0.00462963  12 t-inv F
  0.666667  0.333333  0.333333    0.00462963  12 t-inv F
 -0.333333  0.000000  0.333333    0.00462963  12 t-inv F
  0.000000  0.500000  0.500000    0.00462963  13 t-inv F
  0.500000  0.000000  0.500000    0.00462963  13 t-inv F
  0.166667  0.500000  0.333333    0.00462963  14 t-inv F
  0.333333  0.166667  0.500000    0.00462963  14 t-inv F
 -0.333333 -0.166667  0.166667    0.00462963  14 t-inv F
 -0.500000 -0.166667 -0.333333    0.00462963  14 t-inv F
 -0.166667  0.333333  0.166667    0.00462963  14 t-inv F
  0.166667  0.333333 -0.166667    0.00462963  14 t-inv F
  0.166667 -0.166667 -0.333333    0.00462963  14 t-inv F
 -0.333333 -0.166667 -0.500000    0.00462963  14 t-inv F
 -0.333333 -0.500000 -0.166667    0.00462963  14 t-inv F
  0.166667 -0.166667  0.333333    0.00462963  14 t-inv F
  0.166667 -0.333333 -0.166667    0.00462963  14 t-inv F
 -0.166667  0.166667  0.333333    0.00462963  14 t-inv F
 -0.333333  0.166667 -0.166667    0.00462963  14 t-inv F
 -0.500000 -0.333333 -0.166667    0.00462963  14 t-inv F
 -0.166667 -0.333333 -0.500000    0.00462963  14 t-inv F
  0.333333  0.166667 -0.166667    0.00462963  14 t-inv F
 -0.166667  0.166667 -0.333333    0.00462963  14 t-inv F
  0.333333 -0.166667  0.166667    0.00462963  14 t-inv F
 -0.166667 -0.333333  0.166667    0.00462963  14 t-inv F
 -0.166667 -0.500000 -0.333333    0.00462963  14 t-inv F
  0.500000  0.166667  0.333333    0.00462963  14 t-inv F
  0.333333  0.500000  0.166667    0.00462963  14 t-inv F
  0.166667  0.333333  0.500000    0.00462963  14 t-inv F
  0.166667 -0.333333  0.333333    0.00462963  15 t-inv F
  0.333333  0.166667 -0.333333    0.00462963  15 t-inv F
 -0.333333 -0.166667 -0.666667    0.00462963  15 t-inv F
  0.333333  0.666667  0.500000    0.00462963  15 t-inv F
 -0.166667 -0.500000  0.166667    0.00462963  15 t-inv F
  0.166667 -0.500000 -0.166667    0.00462963  15 t-inv F
 -0.666667 -0.166667 -0.333333    0.00462963  15 t-inv F
  0.500000  0.666667  0.333333    0.00462963  15 t-inv F
  0.500000  0.333333  0.666667    0.00462963  15 t-inv F
  0.166667 -0.166667 -0.500000    0.00462963  15 t-inv F
 -0.666667 -0.333333 -0.166667    0.00462963  15 t-inv F
 -0.166667  0.166667 -0.500000    0.00462963  15 t-inv F
 -0.333333 -0.666667 -0.166667    0.00462963  15 t-inv F
  0.333333  0.500000  0.666667    0.00462963  15 t-inv F
  0.666667  0.500000  0.333333    0.00462963  15 t-inv F
 -0.500000  0.166667 -0.166667    0.00462963  15 t-inv F
 -0.166667 -0.666667 -0.333333    0.00462963  15 t-inv F
 -0.500000 -0.166667  0.166667    0.00462963  15 t-inv F
 -0.166667 -0.333333 -0.666667    0.00462963  15 t-inv F
  0.666667  0.333333  0.500000    0.00462963  15 t-inv F
 -0.333333  0.166667  0.333333    0.00462963  15 t-inv F
  0.333333 -0.333333  0.166667    0.00462963  15 t-inv F
  0.166667  0.333333 -0.333333    0.00462963  15 t-inv F
  0.166667 -0.333333  0.500000    0.00462963  16 t-inv F
  0.500000  0.166667 -0.333333    0.00462963  16 t-inv F
 -0.500000 -0.333333 -0.833333    0.00462963  16 t-inv F
  0.333333  0.833333  0.500000    0.00462963  16 t-inv F
 -0.166667 -0.500000  0.333333    0.00462963  16 t-inv F
  0.333333 -0.500000 -0.166667    0.00462963  16 t-inv F
  0.500000  0.833333  0.333333    0.00462963  16 t-inv F
  0.500000  0.333333  0.833333    0.00462963  16 t-inv F
 -0.833333 -0.500000 -0.333333    0.00462963  16 t-inv F
 -0.166667  0.333333 -0.500000    0.00462963  16 t-inv F
 -0.333333 -0.833333 -0.500000    0.00462963  16 t-inv F
 -0.166667  0.000000  0.000000    0.00462963   2 t-inv T
  0.000000 -0.166667  0.000000    0.00462963   2 t-inv T
  0.000000  0.000000 -0.166667    0.00462963   2 t-inv T
  0.166667  0.166667  0.166667    0.00462963   2 t-inv T
 -0.333333  0.000000  0.000000    0.00462963   3 t-inv T
  0.000000 -0.333333  0.000000    0.00462963   3 t-inv T
  0.000000  0.000000 -0.333333    0.00462963   3 t-inv T
  0.333333  0.333333  0.333333    0.00462963   3 t-inv T
 -0.333333 -0.166667  0.000000    0.00462963   6 t-inv T
  0.000000 -0.333333 -0.166667    0.00462963   6 t-inv T
 -0.166667  0.000000 -0.333333    0.00462963   6 t-inv T
  0.166667  0.166667 -0.166667    0.00462963   6 t-inv T
  0.333333  0.166667  0.333333    0.00462963   6 t-inv T
 -0.166667 -0.333333  0.000000    0.00462963   6 t-inv T
 -0.166667  0.166667  0.166667    0.00462963   6 t-inv T
  0.333333  0.333333  0.166667    0.00462963   6 t-inv T
  0.000000 -0.166667 -0.333333    0.00462963   6 t-inv T
  0.166667 -0.166667  0.166667    0.00462963   6 t-inv T
  0.166667  0.333333  0.333333    0.00462963   6 t-inv T
 -0.333333  0.000000 -0.166667    0.00462963   6 t-inv T
 -0.500000 -0.166667  0.000000    0.00462963   7 t-inv T
  0.000000 -0.500000 -0.166667    0.00462963   7 t-inv T
 -0.166667  0.000000 -0.500000    0.00462963   7 t-inv T
  0.166667  0.166667 -0.333333    0.00462963   7 t-inv T
  0.500000  0.333333  0.500000    0.00462963   7 t-inv T
 -0.166667 -0.500000  0.000000    0.00462963   7 t-inv T
 -0.333333  0.166667  0.166667    0.00462963   7 t-inv T
  0.500000  0.500000  0.333333    0.00462963   7 t-inv T
  0.000000 -0.166667 -0.500000    0.00462963   7 t-inv T
  0.166667 -0.333333  0.166667    0.00462963   7 t-inv T
  0.333333  0.500000  0.500000    0.00462963   7 t-inv T
 -0.500000  0.000000 -0.166667    0.00462963   7 t-inv T
  0.333333 -0.166667  0.000000    0.00462963   8 t-inv T
  0.000000  0.333333 -0.166667    0.00462963   8 t-inv T
 -0.166667  0.000000  0.333333    0.00462963   8 t-inv T
  0.166667  0.166667  0.500000    0.00462963   8 t-inv T
 -0.333333 -0.500000 -0.333333    0.00462963   8 t-inv T
 -0.166667  0.333333  0.000000    0.00462963   8 t-inv T
  0.500000  0.166667  0.166667    0.00462963   8 t-inv T
 -0.333333 -0.333333 -0.500000    0.00462963   8 t-inv T
  0.000000 -0.166667  0.333333    0.00462963   8 t-inv T
  0.166667  0.500000  0.166667    0.00462963   8 t-inv T
 -0.500000 -0.333333 -0.333333    0.00462963   8 t-inv T
  0.333333  0.000000 -0.166667    0.00462963   8 t-inv T
 -0.500000 -0.333333  0.000000    0.00462963  11 t-inv T
  0.000000 -0.500000 -0.333333    0.00462963  11 t-inv T
 -0.333333  0.000000 -0.500000    0.00462963  11 t-inv T
  0.333333  0.333333 -0.166667    0.00462963  11 t-inv T
  0.500000  0.166667  0.500000    0.00462963  11 t-inv T
 -0.333333 -0.500000  0.000000    0.00462963  11 t-inv T
 -0.166667  0.333333  0.333333    0.00462963  11 t-inv T
  0.500000  0.500000  0.166667    0.00462963  11 t-inv T
  0.000000 -0.333333 -0.500000    0.00462963  11 t-inv T
  0.333333 -0.166667  0.333333    0.00462963  11 t-inv T
  0.166667  0.500000  0.500000    0.00462963  11 t-inv T
 -0.500000  0.000000 -0.333333    0.00462963  11 t-inv T


--------------------------------------------------------------------------------------------------------




 Dimension of arrays:
   k-points           NKPTS =    162   k-points in BZ     NKDIM =    362   number of bands    NBANDS=     16
   number of dos      NEDOS =    301   number of ions     NIONS =      2
   non local maximal  LDIM  =      6   non local SUM 2l+1 LMDIM =     18
   total plane-waves  NPLWV =  27000
   max r-space proj   IRMAX =      1   max aug-charges    IRDMAX=  24927
   dimension x,y,z NGX =    30 NGY =   30 NGZ =   30
   dimension x,y,z NGXF=    60 NGYF=   60 NGZF=   60
   support grid    NGXF=    60 NGYF=   60 NGZF=   60
   ions per type =               1   1
 NGX,Y,Z   is equivalent  to a cutoff of  12.48, 12.48, 12.48 a.u.
 NGXF,Y,Z  is equivalent  to a cutoff of  24.95, 24.95, 24.95 a.u.


 I would recommend the setting:
   dimension x,y,z NGX =    29 NGY =   29 NGZ =   29
 SYSTEM =  Name                                    
 POSCAR =  GaAs (Madelung Handbook, RT)            

 Startparameter for this run:
   NWRITE =      2    write-flag & timer
   PREC   = accura    normal or accurate (medium, high low for compatibility)
   ISTART =      0    job   : 0-new  1-cont  2-samecut
   ICHARG =      2    charge: 1-file 2-atom 10-const
   ISPIN  =      1    spin polarized calculation?
   LNONCOLLINEAR =      F non collinear calculations
   LSORBIT =      F    spin-orbit coupling
   INIWAV =      1    electr: 0-lowe 1-rand  2-diag
   LASPH  =      F    aspherical Exc in radial PAW
   METAGGA=      F    non-selfconsistent MetaGGA calc.

 Electronic Relaxation 1
   ENCUT  =  500.0 eV  36.75 Ry    6.06 a.u.   7.29  7.29  7.29*2*pi/ulx,y,z
   ENINI  =  500.0     initial cutoff
   ENAUG  =  490.7 eV  augmentation charge cutoff
   NELM   =     60;   NELMIN=  5; NELMDL=  0     # of ELM steps 
   EDIFF  = 0.1E-05   stopping-criterion for ELM
   LREAL  =      F    real-space projection
   NLSPLINE    = F    spline interpolate recip. space projectors
   LCOMPAT=      F    compatible to vasp.4.4
   GGA_COMPAT  = T    GGA compatible to vasp.4.4-vasp.4.6
   LMAXPAW     = -100 max onsite density
   LMAXMIX     =    2 max onsite mixed and CHGCAR
   VOSKOWN=      0    Vosko Wilk Nusair interpolation
   ROPT   =    0.00000   0.00000
 Ionic relaxation
   EDIFFG = -.5E-02   stopping-criterion for IOM
   NSW    =      1    number of steps for IOM
   NBLOCK =      1;   KBLOCK =      1    inner block; outer block 
   IBRION =      2    ionic relax: 0-MD 1-quasi-New 2-CG
   NFREE  =      1    steps in history (QN), initial steepest desc. (CG)
   ISIF   =      3    stress and relaxation
   IWAVPR =     11    prediction:  0-non 1-charg 2-wave 3-comb
   ISYM   =      2    0-nonsym 1-usesym 2-fastsym
   LCORR  =      T    Harris-Foulkes like correction to forces

   POTIM  = 0.5000    time-step for ionic-motion
   TEIN   =    0.0    initial temperature
   TEBEG  =    0.0;   TEEND  =   0.0 temperature during run
   SMASS  =  -3.00    Nose mass-parameter (am)
   estimated Nose-frequenzy (Omega)   =  0.10E-29 period in steps =****** mass=  -0.365E-27a.u.
   SCALEE = 1.0000    scale energy and forces
   NPACO  =    256;   APACO  = 16.0  distance and # of slots for P.C.
   PSTRESS=    0.0 pullay stress

  Mass of Ions in am
   POMASS =  69.72 74.92
  Ionic Valenz
   ZVAL   =  13.00  5.00
  Atomic Wigner-Seitz radii
   RWIGS  =  -1.00 -1.00
  virtual crystal weights 
   VCA    =   1.00  1.00
   NELECT =      18.0000    total number of electrons
   NUPDOWN=      -1.0000    fix difference up-down

 DOS related values:
   EMIN   =  10.00;   EMAX   =-10.00  energy-range for DOS
   EFERMI =   0.00
   ISMEAR =     0;   SIGMA  =   0.01  broadening in eV -4-tet -1-fermi 0-gaus

 Electronic relaxation 2 (details)
   IALGO  =     58    algorithm
   LDIAG  =      T    sub-space diagonalisation (order eigenvalues)
   LSUBROT=      F    optimize rotation matrix (better conditioning)
   TURBO    =      0    0=normal 1=particle mesh
   IRESTART =      0    0=no restart 2=restart with 2 vectors
   NREBOOT  =      0    no. of reboots
   NMIN     =      0    reboot dimension
   EREF     =   0.00    reference energy to select bands
   IMIX   =      4    mixing-type and parameters
     AMIX     =   0.40;   BMIX     =  1.00
     AMIX_MAG =   1.60;   BMIX_MAG =  1.00
     AMIN     =   0.01
     WC   =   100.;   INIMIX=   1;  MIXPRE=   1;  MAXMIX= -45

 Intra band minimization:
   WEIMIN = 0.0010     energy-eigenvalue tresh-hold
   EBREAK =  0.16E-07  absolut break condition
   DEPER  =   0.30     relativ break condition  

   TIME   =   0.40     timestep for ELM

  volume/ion in A,a.u.               =      22.59       152.43
  Fermi-wavevector in a.u.,A,eV,Ry     =   1.204649  2.276457 19.744497  1.451180
  Thomas-Fermi vector in A             =   2.340368
 
 Write flags
   LWAVE  =      T    write WAVECAR
   LCHARG =      T    write CHGCAR
   LVTOT  =      F    write LOCPOT, total local potential
   LVHAR  =      F    write LOCPOT, Hartree potential only
   LELF   =      F    write electronic localiz. function (ELF)
   LORBIT =     10    0 simple, 1 ext, 2 COOP (PROOUT)


 Dipole corrections
   LMONO  =      F    monopole corrections only (constant potential shift)
   LDIPOL =      F    correct potential (dipole corrections)
   IDIPOL =      0    1-x, 2-y, 3-z, 4-all directions 
   EPSILON=  1.0000000 bulk dielectric constant

 Core level calculations are selected ICORELEVEL =  1
 Exchange correlation treatment:
   GGA     =    PE    GGA type
   LEXCH   =     8    internal setting for exchange type
   VOSKOWN=      0    Vosko Wilk Nusair interpolation
   EXXOEP  =     0    0=HF, 1=EXX-LHF (local Hartree Fock) 2=EXX OEP
   LHFCALC =     T    Hartree Fock is set to
   LSYMGRAD=     F    symmetrize gradient (conserves proper symmetry)
   PRECFOCK=fast      Normal, Fast or Accurate (Low or Medium for compatibility)
   LRHFCALC=     F    long range Hartree Fock
   LRSCOR  =     F    long range correlation only (use DFT for short range part)
   LTHOMAS =     F    Thomas Fermi screening in HF
   LMODELHF=     F    short range full HF, long range fraction AEXX
   ENCUT4O =  -1.0   cutoff for four orbital integrals eV
   LMAXFOCK=     4    L truncation for augmentation on plane wave grid
   LMAXFOCKAE=  -1    L truncation for all-electron charge restoration on plane wave grid
   NMAXFOCKAE=   1    number of basis functions for all-electron charge restoration
   LFOCKAEDFT=     F  apply the AE augmentation even for DFT
   NKREDX  =     1    reduce k-point grid by
   NKREDY  =     1    reduce k-point grid by
   NKREDZ  =     1    reduce k-point grid by
   SHIFTRED=     F    shift reduced grid of Gamma
   HFKIDENT=     F    idential grid for each k-point
   ODDONLY =     F    use only odd q-grid points
   EVENONLY=     F    use only even q-grid points
   HFALPHA =   -1.0000 decay constant for conv. correction
   MCALPHA =    0.0000 extent of test-charge in conv. correction in multipole expansion
   AEXX    =    0.2500 exact exchange contribution
   HFSCREEN=    0.2070 screening length (either q_TF or 0.3 A-1)
   HFSCREENC=   0.2070 screening length for correlation (either q_TF or 0.3 A-1)
   HFRCUT  =    0.0000 spherical cutoff for potential kernel
   ALDAX   =    0.7500 LDA exchange part
   AGGAX   =    0.7500 GGA exchange part
   ALDAC   =    1.0000 LDA correlation
   AGGAC   =    1.0000 GGA correlation
   NBANDSGWLOW=     1    first orbital included in HF term
   ENCUTFOCK=  -1.0 apply spherical cutoff to Coloumb kernel
 Linear response parameters
   LEPSILON=     F    determine dielectric tensor
   LRPA    =     F    only Hartree local field effects (RPA)
   LNABLA  =     F    use nabla operator in PAW spheres
   LVEL    =     F    velocity operator in full k-point grid
   LINTERFAST=   F  fast interpolation
   KINTER  =     0    interpolate to denser k-point grid
   CSHIFT  =0.1000    complex shift for real part using Kramers Kronig
   OMEGAMAX=  -1.0    maximum frequency
   DEG_THRESHOLD= 0.2000000E-02 threshold for treating states as degnerate
   RTIME   =    0.100 relaxation time in fs

 Orbital magnetization related:
   ORBITALMAG=     F  switch on orbital magnetization
   LCHIMAG   =     F  perturbation theory with respect to B field
   DQ        =  0.001000  dq finite difference perturbation B field



--------------------------------------------------------------------------------------------------------


 conjugate gradient relaxation of ions
 charge density and potential will be updated during run
 non-spin polarized calculation
 Conjugate gradient for all bands (Freysoldt, et al. PRB 79, 241103 (2009))
 preconditioned conjugated gradient                                        
 perform sub-space diagonalisation
    before iterative eigenvector-optimisation
 modified Broyden-mixing scheme, WC =      100.0
 initial mixing is a Kerker type mixing with AMIX =  0.4000 and BMIX =      1.0000
 Hartree-type preconditioning will be used
 using additional bands            7
 reciprocal scheme for non local part
 use partial core corrections
 no Harris-corrections to forces 
 use gradient corrections 
 use of overlap-Matrix (Vanderbilt PP)
 Gauss-broadening in eV      SIGMA  =   0.01


--------------------------------------------------------------------------------------------------------


  energy-cutoff  :      500.00
  volume of cell :       45.18
      direct lattice vectors                 reciprocal lattice vectors
     2.826800000  2.826800000  0.000000000     0.176878449  0.176878449  0.176878449
     2.826800000  0.000000000 -2.826800000     0.176878449 -0.176878449 -0.176878449
     0.000000000  2.826800000 -2.826800000    -0.176878449  0.176878449 -0.176878449

  length of vectors
     3.997698898  3.997698898  3.997698898     0.306362461  0.306362461  0.306362461


 
 k-points in units of 2pi/SCALE and weight: Automatically generated mesh: SCF 16, 0.
   0.00000000  0.00000000  0.00000000       0.005
   0.16666667  0.16666667  0.16666667       0.037
   0.33333333  0.33333333  0.33333333       0.037
   0.50000000  0.50000000  0.50000000       0.019
   0.33333333  0.00000000  0.00000000       0.028
   0.50000000  0.16666667  0.16666667       0.111
   0.66666667  0.33333333  0.33333333       0.111
  -0.16666667 -0.50000000 -0.50000000       0.111
   0.00000000 -0.33333333 -0.33333333       0.056
   0.66666667  0.00000000  0.00000000       0.028
   0.83333333  0.16666667  0.16666667       0.111
   0.00000000 -0.66666667 -0.66666667       0.056
   1.00000000  0.00000000  0.00000000       0.014
   0.66666667  0.33333333  0.00000000       0.111
  -0.16666667 -0.50000000 -0.83333333       0.111
   0.00000000 -0.66666667 -1.00000000       0.056
   0.00000000  0.00000000  0.00000000       0.000
   0.00000000  0.02857142  0.00000000       0.000
   0.00000000  0.05714286  0.00000000       0.000
   0.00000000  0.08571428  0.00000000       0.000
   0.00000000  0.11428572  0.00000000       0.000
   0.00000000  0.14285714  0.00000000       0.000
   0.00000000  0.17142858  0.00000000       0.000
   0.00000000  0.19999998  0.00000000       0.000
   0.00000000  0.22857142  0.00000000       0.000
   0.00000000  0.25714288  0.00000000       0.000
   0.00000000  0.28571430  0.00000000       0.000
   0.00000000  0.31428570  0.00000000       0.000
   0.00000000  0.34285716  0.00000000       0.000
   0.00000000  0.37142854  0.00000000       0.000
   0.00000000  0.39999998  0.00000000       0.000
   0.00000000  0.42857140  0.00000000       0.000
   0.00000000  0.45714286  0.00000000       0.000
   0.00000000  0.48571428  0.00000000       0.000
   0.00000000  0.51428574  0.00000000       0.000
   0.00000000  0.54285718  0.00000000       0.000
   0.00000000  0.57142860  0.00000000       0.000
   0.00000000  0.59999996  0.00000000       0.000
   0.00000000  0.62857140  0.00000000       0.000
   0.00000000  0.65714282  0.00000000       0.000
   0.00000000  0.68571430  0.00000000       0.000
   0.00000000  0.71428568  0.00000000       0.000
   0.00000000  0.74285710  0.00000000       0.000
   0.00000000  0.77142852  0.00000000       0.000
   0.00000000  0.79999996  0.00000000       0.000
   0.00000000  0.82857138  0.00000000       0.000
   0.00000000  0.85714280  0.00000000       0.000
   0.00000000  0.88571430  0.00000000       0.000
   0.00000000  0.91428572  0.00000000       0.000
   0.00000000  0.94285714  0.00000000       0.000
   0.00000000  0.97142858  0.00000000       0.000
   0.00000000  1.00000000  0.00000000       0.000
   0.00000001  0.98913043 -0.03260869       0.000
   0.00000001  0.97826087 -0.06521739       0.000
   0.00000001  0.96739131 -0.09782607       0.000
   0.00000001  0.95652173 -0.13043477       0.000
   0.00000002  0.94565216 -0.16304346       0.000
   0.00000002  0.93478260 -0.19565216       0.000
   0.00000003  0.92391303 -0.22826085       0.000
   0.00000003  0.91304347 -0.26086953       0.000
   0.00000005  0.90217389 -0.29347823       0.000
   0.00000004  0.89130434 -0.32608692       0.000
   0.00000006  0.88043476 -0.35869562       0.000
   0.00000004  0.86956520 -0.39130430       0.000
  -0.00000004  0.85869566 -0.42391308       0.000
  -0.00000004  0.84782610 -0.45652178       0.000
  -0.00000003  0.83695653 -0.48913047       0.000
  -0.00000003  0.82608697 -0.52173915       0.000
  -0.00000002  0.81521740 -0.55434784       0.000
   0.00000000  0.80434782 -0.58695656       0.000
  -0.00000003  0.79347829 -0.61956521       0.000
  -0.00000000  0.78260868 -0.65217394       0.000
   0.00000000  0.77173912 -0.68478262       0.000
   0.00000003  0.76086953 -0.71739135       0.000
   0.00000000  0.75000000 -0.75000000       0.000
  -0.00000001  0.73333335 -0.73333335       0.000
   0.00000000  0.71666664 -0.71666664       0.000
  -0.00000001  0.69999999 -0.69999999       0.000
   0.00000000  0.68333334 -0.68333334       0.000
  -0.00000001  0.66666669 -0.66666669       0.000
   0.00000000  0.64999998 -0.64999998       0.000
  -0.00000001  0.63333333 -0.63333333       0.000
   0.00000001  0.61666667 -0.61666667       0.000
   0.00000000  0.60000002 -0.60000002       0.000
   0.00000001  0.58333331 -0.58333331       0.000
   0.00000000  0.56666666 -0.56666666       0.000
   0.00000001  0.55000001 -0.55000001       0.000
   0.00000000  0.53333330 -0.53333330       0.000
   0.00000001  0.51666665 -0.51666665       0.000
   0.00000001  0.49999997 -0.49999997       0.000
   0.00000000  0.48333332 -0.48333332       0.000
  -0.00000001  0.46666667 -0.46666667       0.000
   0.00000000  0.45000002 -0.45000002       0.000
  -0.00000001  0.43333331 -0.43333331       0.000
   0.00000000  0.41666666 -0.41666666       0.000
  -0.00000001  0.40000001 -0.40000001       0.000
   0.00000000  0.38333330 -0.38333330       0.000
   0.00000000  0.36666664 -0.36666664       0.000
   0.00000001  0.34999999 -0.34999999       0.000
   0.00000001  0.33333331 -0.33333331       0.000
   0.00000000  0.31666666 -0.31666666       0.000
   0.00000000  0.29999998 -0.29999998       0.000
   0.00000001  0.28333333 -0.28333333       0.000
   0.00000001  0.26666665 -0.26666665       0.000
   0.00000000  0.24999994 -0.24999994       0.000
  -0.00000001  0.23333329 -0.23333329       0.000
   0.00000000  0.21666664 -0.21666664       0.000
  -0.00000001  0.19999993 -0.19999993       0.000
   0.00000000  0.18333334 -0.18333334       0.000
  -0.00000001  0.16666663 -0.16666663       0.000
   0.00000000  0.15000004 -0.15000004       0.000
  -0.00000001  0.13333333 -0.13333333       0.000
   0.00000000  0.11666662 -0.11666662       0.000
   0.00000000  0.10000002 -0.10000002       0.000
   0.00000001  0.08333331 -0.08333331       0.000
   0.00000000  0.06666660 -0.06666660       0.000
   0.00000001  0.05000001 -0.05000001       0.000
   0.00000000  0.03333330 -0.03333330       0.000
   0.00000001  0.01666659 -0.01666659       0.000
   0.00000000  0.00000000  0.00000000       0.000
   0.01190476  0.01190476 -0.01190476       0.000
   0.02380952  0.02380952 -0.02380952       0.000
   0.03571428  0.03571428 -0.03571428       0.000
   0.04761904  0.04761904 -0.04761904       0.000
   0.05952381  0.05952381 -0.05952381       0.000
   0.07142857  0.07142857 -0.07142857       0.000
   0.08333334  0.08333334 -0.08333334       0.000
   0.09523809  0.09523809 -0.09523809       0.000
   0.10714285  0.10714285 -0.10714285       0.000
   0.11904762  0.11904762 -0.11904762       0.000
   0.13095237  0.13095237 -0.13095237       0.000
   0.14285713  0.14285713 -0.14285713       0.000
   0.15476190  0.15476190 -0.15476190       0.000
   0.16666667  0.16666667 -0.16666667       0.000
   0.17857142  0.17857142 -0.17857142       0.000
   0.19047618  0.19047618 -0.19047618       0.000
   0.20238096  0.20238096 -0.20238096       0.000
   0.21428570  0.21428570 -0.21428570       0.000
   0.22619046  0.22619046 -0.22619046       0.000
   0.23809524  0.23809524 -0.23809524       0.000
   0.24999999  0.24999999 -0.24999999       0.000
   0.26190475  0.26190475 -0.26190475       0.000
   0.27380952  0.27380952 -0.27380952       0.000
   0.28571427  0.28571427 -0.28571427       0.000
   0.29761904  0.29761904 -0.29761904       0.000
   0.30952379  0.30952379 -0.30952379       0.000
   0.32142854  0.32142854 -0.32142854       0.000
   0.33333334  0.33333334 -0.33333334       0.000
   0.34523809  0.34523809 -0.34523809       0.000
   0.35714284  0.35714284 -0.35714284       0.000
   0.36904761  0.36904761 -0.36904761       0.000
   0.38095236  0.38095236 -0.38095236       0.000
   0.39285710  0.39285710 -0.39285710       0.000
   0.40476191  0.40476191 -0.40476191       0.000
   0.41666666  0.41666666 -0.41666666       0.000
   0.42857140  0.42857140 -0.42857140       0.000
   0.44047618  0.44047618 -0.44047618       0.000
   0.45238093  0.45238093 -0.45238093       0.000
   0.46428567  0.46428567 -0.46428567       0.000
   0.47619048  0.47619048 -0.47619048       0.000
   0.48809522  0.48809522 -0.48809522       0.000
   0.49999997  0.49999997 -0.49999997       0.000
 
 k-points in reciprocal lattice and weights: Automatically generated mesh: SCF 16, 0.
   0.00000000  0.00000000  0.00000000       0.005
   0.16666667  0.00000000  0.00000000       0.037
   0.33333333  0.00000000  0.00000000       0.037
   0.50000000  0.00000000  0.00000000       0.019
   0.16666667  0.16666667  0.00000000       0.028
   0.33333333  0.16666667  0.00000000       0.111
   0.50000000  0.16666667  0.00000000       0.111
  -0.33333333  0.16666667  0.00000000       0.111
  -0.16666667  0.16666667  0.00000000       0.056
   0.33333333  0.33333333  0.00000000       0.028
   0.50000000  0.33333333  0.00000000       0.111
  -0.33333333  0.33333333  0.00000000       0.056
   0.50000000  0.50000000  0.00000000       0.014
   0.50000000  0.33333333  0.16666667       0.111
  -0.33333333  0.33333333  0.16666667       0.111
  -0.33333333  0.50000000  0.16666667       0.056
   0.00000000  0.00000000  0.00000000       0.000
   0.01428571  0.00000000  0.01428571       0.000
   0.02857143  0.00000000  0.02857143       0.000
   0.04285714  0.00000000  0.04285714       0.000
   0.05714286  0.00000000  0.05714286       0.000
   0.07142857  0.00000000  0.07142857       0.000
   0.08571429  0.00000000  0.08571429       0.000
   0.09999999  0.00000000  0.09999999       0.000
   0.11428571  0.00000000  0.11428571       0.000
   0.12857144  0.00000000  0.12857144       0.000
   0.14285715  0.00000000  0.14285715       0.000
   0.15714285  0.00000000  0.15714285       0.000
   0.17142858  0.00000000  0.17142858       0.000
   0.18571427  0.00000000  0.18571427       0.000
   0.19999999  0.00000000  0.19999999       0.000
   0.21428570  0.00000000  0.21428570       0.000
   0.22857143  0.00000000  0.22857143       0.000
   0.24285714  0.00000000  0.24285714       0.000
   0.25714287  0.00000000  0.25714287       0.000
   0.27142859  0.00000000  0.27142859       0.000
   0.28571430  0.00000000  0.28571430       0.000
   0.29999998  0.00000000  0.29999998       0.000
   0.31428570  0.00000000  0.31428570       0.000
   0.32857141  0.00000000  0.32857141       0.000
   0.34285715  0.00000000  0.34285715       0.000
   0.35714284  0.00000000  0.35714284       0.000
   0.37142855  0.00000000  0.37142855       0.000
   0.38571426  0.00000000  0.38571426       0.000
   0.39999998  0.00000000  0.39999998       0.000
   0.41428569  0.00000000  0.41428569       0.000
   0.42857140  0.00000000  0.42857140       0.000
   0.44285715  0.00000000  0.44285715       0.000
   0.45714286  0.00000000  0.45714286       0.000
   0.47142857  0.00000000  0.47142857       0.000
   0.48571429  0.00000000  0.48571429       0.000
   0.50000000  0.00000000  0.50000000       0.000
   0.49456522  0.01630435  0.51086956       0.000
   0.48913044  0.03260870  0.52173913       0.000
   0.48369566  0.04891304  0.53260869       0.000
   0.47826087  0.06521739  0.54347825       0.000
   0.47282609  0.08152174  0.55434781       0.000
   0.46739131  0.09782609  0.56521738       0.000
   0.46195653  0.11413044  0.57608694       0.000
   0.45652175  0.13043478  0.58695650       0.000
   0.45108697  0.14673914  0.59782606       0.000
   0.44565219  0.16304348  0.60869563       0.000
   0.44021741  0.17934784  0.61956519       0.000
   0.43478262  0.19565217  0.63043475       0.000
   0.42934781  0.21195652  0.64130437       0.000
   0.42391303  0.22826087  0.65217394       0.000
   0.41847825  0.24456522  0.66304350       0.000
   0.41304347  0.26086956  0.67391306       0.000
   0.40760869  0.27717391  0.68478262       0.000
   0.40217391  0.29347828  0.69565219       0.000
   0.39673913  0.30978259  0.70652175       0.000
   0.39130434  0.32608697  0.71739131       0.000
   0.38586956  0.34239131  0.72826087       0.000
   0.38043478  0.35869569  0.73913044       0.000
   0.37500000  0.37500000  0.75000000       0.000
   0.36666667  0.36666667  0.73333335       0.000
   0.35833332  0.35833332  0.71666664       0.000
   0.34999999  0.34999999  0.69999999       0.000
   0.34166667  0.34166667  0.68333334       0.000
   0.33333334  0.33333334  0.66666669       0.000
   0.32499999  0.32499999  0.64999998       0.000
   0.31666666  0.31666666  0.63333333       0.000
   0.30833334  0.30833334  0.61666667       0.000
   0.30000001  0.30000001  0.60000002       0.000
   0.29166666  0.29166666  0.58333331       0.000
   0.28333333  0.28333333  0.56666666       0.000
   0.27500001  0.27500001  0.55000001       0.000
   0.26666665  0.26666665  0.53333330       0.000
   0.25833333  0.25833333  0.51666665       0.000
   0.24999999  0.24999999  0.49999997       0.000
   0.24166666  0.24166666  0.48333332       0.000
   0.23333333  0.23333333  0.46666667       0.000
   0.22500001  0.22500001  0.45000002       0.000
   0.21666665  0.21666665  0.43333331       0.000
   0.20833333  0.20833333  0.41666666       0.000
   0.20000000  0.20000000  0.40000001       0.000
   0.19166665  0.19166665  0.38333330       0.000
   0.18333332  0.18333332  0.36666664       0.000
   0.17500000  0.17500000  0.34999999       0.000
   0.16666666  0.16666666  0.33333331       0.000
   0.15833333  0.15833333  0.31666666       0.000
   0.14999999  0.14999999  0.29999998       0.000
   0.14166667  0.14166667  0.28333333       0.000
   0.13333333  0.13333333  0.26666665       0.000
   0.12499997  0.12499997  0.24999994       0.000
   0.11666664  0.11666664  0.23333329       0.000
   0.10833332  0.10833332  0.21666664       0.000
   0.09999996  0.09999996  0.19999993       0.000
   0.09166667  0.09166667  0.18333334       0.000
   0.08333331  0.08333331  0.16666663       0.000
   0.07500002  0.07500002  0.15000004       0.000
   0.06666666  0.06666666  0.13333333       0.000
   0.05833331  0.05833331  0.11666662       0.000
   0.05000001  0.05000001  0.10000002       0.000
   0.04166666  0.04166666  0.08333331       0.000
   0.03333330  0.03333330  0.06666660       0.000
   0.02500001  0.02500001  0.05000001       0.000
   0.01666665  0.01666665  0.03333330       0.000
   0.00833330  0.00833330  0.01666659       0.000
   0.00000000  0.00000000  0.00000000       0.000
   0.01190476  0.01190476  0.01190476       0.000
   0.02380952  0.02380952  0.02380952       0.000
   0.03571428  0.03571428  0.03571428       0.000
   0.04761904  0.04761904  0.04761904       0.000
   0.05952381  0.05952381  0.05952381       0.000
   0.07142857  0.07142857  0.07142857       0.000
   0.08333334  0.08333334  0.08333334       0.000
   0.09523809  0.09523809  0.09523809       0.000
   0.10714285  0.10714285  0.10714285       0.000
   0.11904762  0.11904762  0.11904762       0.000
   0.13095237  0.13095237  0.13095237       0.000
   0.14285713  0.14285713  0.14285713       0.000
   0.15476190  0.15476190  0.15476190       0.000
   0.16666667  0.16666667  0.16666667       0.000
   0.17857142  0.17857142  0.17857142       0.000
   0.19047618  0.19047618  0.19047618       0.000
   0.20238096  0.20238096  0.20238096       0.000
   0.21428570  0.21428570  0.21428570       0.000
   0.22619046  0.22619046  0.22619046       0.000
   0.23809524  0.23809524  0.23809524       0.000
   0.24999999  0.24999999  0.24999999       0.000
   0.26190475  0.26190475  0.26190475       0.000
   0.27380952  0.27380952  0.27380952       0.000
   0.28571427  0.28571427  0.28571427       0.000
   0.29761904  0.29761904  0.29761904       0.000
   0.30952379  0.30952379  0.30952379       0.000
   0.32142854  0.32142854  0.32142854       0.000
   0.33333334  0.33333334  0.33333334       0.000
   0.34523809  0.34523809  0.34523809       0.000
   0.35714284  0.35714284  0.35714284       0.000
   0.36904761  0.36904761  0.36904761       0.000
   0.38095236  0.38095236  0.38095236       0.000
   0.39285710  0.39285710  0.39285710       0.000
   0.40476191  0.40476191  0.40476191       0.000
   0.41666666  0.41666666  0.41666666       0.000
   0.42857140  0.42857140  0.42857140       0.000
   0.44047618  0.44047618  0.44047618       0.000
   0.45238093  0.45238093  0.45238093       0.000
   0.46428567  0.46428567  0.46428567       0.000
   0.47619048  0.47619048  0.47619048       0.000
   0.48809522  0.48809522  0.48809522       0.000
   0.49999997  0.49999997  0.49999997       0.000
 
 position of ions in fractional coordinates (direct lattice) 
   0.00000000  0.00000000  0.00000000
   0.25000000  0.25000000  0.25000000
 
 position of ions in cartesian coordinates  (Angst):
   0.00000000  0.00000000  0.00000000
   1.41340000  1.41340000 -1.41340000
 


--------------------------------------------------------------------------------------------------------


 k-point  1 :   0.0000 0.0000 0.0000  plane waves:    1139
 k-point  2 :   0.1667 0.0000 0.0000  plane waves:    1167
 k-point  3 :   0.3333 0.0000 0.0000  plane waves:    1149
 k-point  4 :   0.5000 0.0000 0.0000  plane waves:    1158
 k-point  5 :   0.1667 0.1667 0.0000  plane waves:    1154
 k-point  6 :   0.3333 0.1667 0.0000  plane waves:    1137
 k-point  7 :   0.5000 0.1667 0.0000  plane waves:    1145
 k-point  8 :  -0.3333 0.1667 0.0000  plane waves:    1144
 k-point  9 :  -0.1667 0.1667 0.0000  plane waves:    1147
 k-point 10 :   0.3333 0.3333 0.0000  plane waves:    1150
 k-point 11 :   0.5000 0.3333 0.0000  plane waves:    1149
 k-point 12 :  -0.3333 0.3333 0.0000  plane waves:    1141
 k-point 13 :   0.5000 0.5000 0.0000  plane waves:    1162
 k-point 14 :   0.5000 0.3333 0.1667  plane waves:    1151
 k-point 15 :  -0.3333 0.3333 0.1667  plane waves:    1144
 k-point 16 :  -0.3333 0.5000 0.1667  plane waves:    1142
 k-point 17 :   0.0000 0.0000 0.0000  plane waves:    1139
 k-point 18 :   0.0143 0.0000 0.0143  plane waves:    1139
 k-point 19 :   0.0286 0.0000 0.0286  plane waves:    1155
 k-point 20 :   0.0429 0.0000 0.0429  plane waves:    1163
 k-point 21 :   0.0571 0.0000 0.0571  plane waves:    1163
 k-point 22 :   0.0714 0.0000 0.0714  plane waves:    1159
 k-point 23 :   0.0857 0.0000 0.0857  plane waves:    1163
 k-point 24 :   0.1000 0.0000 0.1000  plane waves:    1155
 k-point 25 :   0.1143 0.0000 0.1143  plane waves:    1155
 k-point 26 :   0.1286 0.0000 0.1286  plane waves:    1155
 k-point 27 :   0.1429 0.0000 0.1429  plane waves:    1155
 k-point 28 :   0.1571 0.0000 0.1571  plane waves:    1154
 k-point 29 :   0.1714 0.0000 0.1714  plane waves:    1154
 k-point 30 :   0.1857 0.0000 0.1857  plane waves:    1154
 k-point 31 :   0.2000 0.0000 0.2000  plane waves:    1146
 k-point 32 :   0.2143 0.0000 0.2143  plane waves:    1146
 k-point 33 :   0.2286 0.0000 0.2286  plane waves:    1146
 k-point 34 :   0.2429 0.0000 0.2429  plane waves:    1146
 k-point 35 :   0.2571 0.0000 0.2571  plane waves:    1146
 k-point 36 :   0.2714 0.0000 0.2714  plane waves:    1146
 k-point 37 :   0.2857 0.0000 0.2857  plane waves:    1146
 k-point 38 :   0.3000 0.0000 0.3000  plane waves:    1146
 k-point 39 :   0.3143 0.0000 0.3143  plane waves:    1142
 k-point 40 :   0.3286 0.0000 0.3286  plane waves:    1150
 k-point 41 :   0.3429 0.0000 0.3429  plane waves:    1142
 k-point 42 :   0.3571 0.0000 0.3571  plane waves:    1150
 k-point 43 :   0.3714 0.0000 0.3714  plane waves:    1150
 k-point 44 :   0.3857 0.0000 0.3857  plane waves:    1150
 k-point 45 :   0.4000 0.0000 0.4000  plane waves:    1154
 k-point 46 :   0.4143 0.0000 0.4143  plane waves:    1146
 k-point 47 :   0.4286 0.0000 0.4286  plane waves:    1146
 k-point 48 :   0.4429 0.0000 0.4429  plane waves:    1154
 k-point 49 :   0.4571 0.0000 0.4571  plane waves:    1154
 k-point 50 :   0.4714 0.0000 0.4714  plane waves:    1154
 k-point 51 :   0.4857 0.0000 0.4857  plane waves:    1162
 k-point 52 :   0.5000 0.0000 0.5000  plane waves:    1162
 k-point 53 :   0.4946 0.0163 0.5109  plane waves:    1152
 k-point 54 :   0.4891 0.0326 0.5217  plane waves:    1146
 k-point 55 :   0.4837 0.0489 0.5326  plane waves:    1144
 k-point 56 :   0.4783 0.0652 0.5435  plane waves:    1141
 k-point 57 :   0.4728 0.0815 0.5543  plane waves:    1144
 k-point 58 :   0.4674 0.0978 0.5652  plane waves:    1144
 k-point 59 :   0.4620 0.1141 0.5761  plane waves:    1152
 k-point 60 :   0.4565 0.1304 0.5870  plane waves:    1149
 k-point 61 :   0.4511 0.1467 0.5978  plane waves:    1150
 k-point 62 :   0.4457 0.1630 0.6087  plane waves:    1150
 k-point 63 :   0.4402 0.1793 0.6196  plane waves:    1147
 k-point 64 :   0.4348 0.1957 0.6304  plane waves:    1145
 k-point 65 :   0.4293 0.2120 0.6413  plane waves:    1145
 k-point 66 :   0.4239 0.2283 0.6522  plane waves:    1143
 k-point 67 :   0.4185 0.2446 0.6630  plane waves:    1147
 k-point 68 :   0.4130 0.2609 0.6739  plane waves:    1143
 k-point 69 :   0.4076 0.2772 0.6848  plane waves:    1151
 k-point 70 :   0.4022 0.2935 0.6957  plane waves:    1149
 k-point 71 :   0.3967 0.3098 0.7065  plane waves:    1147
 k-point 72 :   0.3913 0.3261 0.7174  plane waves:    1146
 k-point 73 :   0.3859 0.3424 0.7283  plane waves:    1140
 k-point 74 :   0.3804 0.3587 0.7391  plane waves:    1138
 k-point 75 :   0.3750 0.3750 0.7500  plane waves:    1144
 k-point 76 :   0.3667 0.3667 0.7333  plane waves:    1136
 k-point 77 :   0.3583 0.3583 0.7167  plane waves:    1138
 k-point 78 :   0.3500 0.3500 0.7000  plane waves:    1141
 k-point 79 :   0.3417 0.3417 0.6833  plane waves:    1141
 k-point 80 :   0.3333 0.3333 0.6667  plane waves:    1141
 k-point 81 :   0.3250 0.3250 0.6500  plane waves:    1141
 k-point 82 :   0.3167 0.3167 0.6333  plane waves:    1141
 k-point 83 :   0.3083 0.3083 0.6167  plane waves:    1139
 k-point 84 :   0.3000 0.3000 0.6000  plane waves:    1139
 k-point 85 :   0.2917 0.2917 0.5833  plane waves:    1137
 k-point 86 :   0.2833 0.2833 0.5667  plane waves:    1137
 k-point 87 :   0.2750 0.2750 0.5500  plane waves:    1147
 k-point 88 :   0.2667 0.2667 0.5333  plane waves:    1147
 k-point 89 :   0.2583 0.2583 0.5167  plane waves:    1147
 k-point 90 :   0.2500 0.2500 0.5000  plane waves:    1135
 k-point 91 :   0.2417 0.2417 0.4833  plane waves:    1135
 k-point 92 :   0.2333 0.2333 0.4667  plane waves:    1139
 k-point 93 :   0.2250 0.2250 0.4500  plane waves:    1147
 k-point 94 :   0.2167 0.2167 0.4333  plane waves:    1147
 k-point 95 :   0.2083 0.2083 0.4167  plane waves:    1147
 k-point 96 :   0.2000 0.2000 0.4000  plane waves:    1151
 k-point 97 :   0.1917 0.1917 0.3833  plane waves:    1151
 k-point 98 :   0.1833 0.1833 0.3667  plane waves:    1151
 k-point 99 :   0.1750 0.1750 0.3500  plane waves:    1147
 k-point ** :   0.1667 0.1667 0.3333  plane waves:    1147
 k-point ** :   0.1583 0.1583 0.3167  plane waves:    1143
 k-point ** :   0.1500 0.1500 0.3000  plane waves:    1145
 k-point ** :   0.1417 0.1417 0.2833  plane waves:    1153
 k-point ** :   0.1333 0.1333 0.2667  plane waves:    1153
 k-point ** :   0.1250 0.1250 0.2500  plane waves:    1159
 k-point ** :   0.1167 0.1167 0.2333  plane waves:    1159
 k-point ** :   0.1083 0.1083 0.2167  plane waves:    1159
 k-point ** :   0.1000 0.1000 0.2000  plane waves:    1159
 k-point ** :   0.0917 0.0917 0.1833  plane waves:    1159
 k-point ** :   0.0833 0.0833 0.1667  plane waves:    1163
 k-point ** :   0.0750 0.0750 0.1500  plane waves:    1163
 k-point ** :   0.0667 0.0667 0.1333  plane waves:    1169
 k-point ** :   0.0583 0.0583 0.1167  plane waves:    1169
 k-point ** :   0.0500 0.0500 0.1000  plane waves:    1173
 k-point ** :   0.0417 0.0417 0.0833  plane waves:    1163
 k-point ** :   0.0333 0.0333 0.0667  plane waves:    1161
 k-point ** :   0.0250 0.0250 0.0500  plane waves:    1157
 k-point ** :   0.0167 0.0167 0.0333  plane waves:    1145
 k-point ** :   0.0083 0.0083 0.0167  plane waves:    1139
 k-point ** :   0.0000 0.0000 0.0000  plane waves:    1139
 k-point ** :   0.0119 0.0119 0.0119  plane waves:    1139
 k-point ** :   0.0238 0.0238 0.0238  plane waves:    1142
 k-point ** :   0.0357 0.0357 0.0357  plane waves:    1157
 k-point ** :   0.0476 0.0476 0.0476  plane waves:    1157
 k-point ** :   0.0595 0.0595 0.0595  plane waves:    1158
 k-point ** :   0.0714 0.0714 0.0714  plane waves:    1155
 k-point ** :   0.0833 0.0833 0.0833  plane waves:    1161
 k-point ** :   0.0952 0.0952 0.0952  plane waves:    1155
 k-point ** :   0.1071 0.1071 0.1071  plane waves:    1155
 k-point ** :   0.1190 0.1190 0.1190  plane waves:    1155
 k-point ** :   0.1310 0.1310 0.1310  plane waves:    1155
 k-point ** :   0.1429 0.1429 0.1429  plane waves:    1161
 k-point ** :   0.1548 0.1548 0.1548  plane waves:    1167
 k-point ** :   0.1667 0.1667 0.1667  plane waves:    1167
 k-point ** :   0.1786 0.1786 0.1786  plane waves:    1167
 k-point ** :   0.1905 0.1905 0.1905  plane waves:    1167
 k-point ** :   0.2024 0.2024 0.2024  plane waves:    1167
 k-point ** :   0.2143 0.2143 0.2143  plane waves:    1164
 k-point ** :   0.2262 0.2262 0.2262  plane waves:    1158
 k-point ** :   0.2381 0.2381 0.2381  plane waves:    1152
 k-point ** :   0.2500 0.2500 0.2500  plane waves:    1152
 k-point ** :   0.2619 0.2619 0.2619  plane waves:    1146
 k-point ** :   0.2738 0.2738 0.2738  plane waves:    1149
 k-point ** :   0.2857 0.2857 0.2857  plane waves:    1155
 k-point ** :   0.2976 0.2976 0.2976  plane waves:    1155
 k-point ** :   0.3095 0.3095 0.3095  plane waves:    1152
 k-point ** :   0.3214 0.3214 0.3214  plane waves:    1149
 k-point ** :   0.3333 0.3333 0.3333  plane waves:    1149
 k-point ** :   0.3452 0.3452 0.3452  plane waves:    1149
 k-point ** :   0.3571 0.3571 0.3571  plane waves:    1149
 k-point ** :   0.3690 0.3690 0.3690  plane waves:    1155
 k-point ** :   0.3810 0.3810 0.3810  plane waves:    1149
 k-point ** :   0.3929 0.3929 0.3929  plane waves:    1149
 k-point ** :   0.4048 0.4048 0.4048  plane waves:    1149
 k-point ** :   0.4167 0.4167 0.4167  plane waves:    1149
 k-point ** :   0.4286 0.4286 0.4286  plane waves:    1155
 k-point ** :   0.4405 0.4405 0.4405  plane waves:    1155
 k-point ** :   0.4524 0.4524 0.4524  plane waves:    1161
 k-point ** :   0.4643 0.4643 0.4643  plane waves:    1164
 k-point ** :   0.4762 0.4762 0.4762  plane waves:    1158
 k-point ** :   0.4881 0.4881 0.4881  plane waves:    1158
 k-point ** :   0.5000 0.5000 0.5000  plane waves:    1158

 maximum and minimum number of plane-waves per node :       206      175

 maximum number of plane-waves:      1173
 maximum index in each direction: 
   IXMAX=    7   IYMAX=    7   IZMAX=    7
   IXMIN=   -7   IYMIN=   -7   IZMIN=   -8

 NGX is ok and might be reduce to  30
 NGY is ok and might be reduce to  30
 WARNING: aliasing errors must be expected set NGZ to  32 to avoid them
 aliasing errors are usually negligible using standard VASP settings
 and one can safely disregard these warnings

 parallel 3D FFT for wavefunctions:
    minimum data exchange during FFTs selected (reduces bandwidth)
 parallel 3D FFT for charge:
    minimum data exchange during FFTs selected (reduces bandwidth)


 FFT grid for exact exchange (Hartree Fock) 
  NGX = 18; NGY = 18; NGZ = 18

 
 Radii for the augmentation spheres in the non-local exchange
 for species   1 augmentation radius   1.392 (default was   1.031)
       energy cutoff for augmentation   2000.0
 for species   2 augmentation radius   1.434 (default was   1.062)
       energy cutoff for augmentation   2000.0

 real space projection operators:
  total allocation   :        609.18 KBytes
  max/ min on nodes  :        105.47         97.85

 Maximum index for augmentation-charges in exchange          279
  SETUP_FOCK is finished

 total amount of memory used by VASP on root node    51846. kBytes
========================================================================

   base      :      30000. kBytes
   nonl-proj :      11765. kBytes
   fftplans  :        555. kBytes
   grid      :        801. kBytes
   one-center:         15. kBytes
   HF        :         64. kBytes
   nonlr-proj:        186. kBytes
   wavefun   :       8460. kBytes
 
     INWAV:  cpu time    0.0000: real time    0.0000
 Broyden mixing: mesh for mixing (old mesh)
   NGX = 15   NGY = 15   NGZ = 15
  (NGX  = 60   NGY  = 60   NGZ  = 60)
  gives a total of   3375 points

 initial charge density was supplied:
 charge density of overlapping atoms calculated
 number of electron      18.0000000 magnetization 
 charge density for first step will be calculated from the start-wavefunctions


--------------------------------------------------------------------------------------------------------


 Maximum index for augmentation-charges         1370 (set IRDMAX)


--------------------------------------------------------------------------------------------------------


 First call to EWALD:  gamma=   0.498
 Maximum number of real-space cells 3x 3x 3
 Maximum number of reciprocal cells 3x 3x 3

 FEWALD executed in parallel
    FEWALD:  cpu time    0.0040: real time    0.0033


----------------------------------------- Iteration    1(   1)  ---------------------------------------


    POTLOK:  cpu time    0.0240: real time    0.0225
    SETDIJ:  cpu time    0.2400: real time    0.2396
    TRIAL :  cpu time    0.2560: real time    0.2602
    CORREC:  cpu time    0.0000: real time    0.0010
    --------------------------------------------
      LOOP:  cpu time    0.5200: real time    0.5284

 eigenvalue-minimisations  :  6592
 total energy-change (2. order) : 0.7784881E+03  (-0.3478315E+04)
 number of electron      18.0000000 magnetization 
 augmentation part       18.0000000 magnetization 

 Free energy of the ion-electron system (eV)
  ---------------------------------------------------
  alpha Z        PSCENC =        60.29112737
  Ewald energy   TEWEN  =     -1265.50193243
  -Hartree energ DENC   =      -725.79254029
  -exchange      EXHF   =         0.00000000
  -V(xc)+E(xc)   XCENC  =        23.44814936
  PAW double counting   =      1758.35752223    -2059.93601497
  entropy T*S    EENTRO =        -0.00039260
  eigenvalues    EBANDS =       671.87787777
  atomic energy  EATOM  =      2315.74433272
  ---------------------------------------------------
  free energy    TOTEN  =       778.48812916 eV

  energy without entropy =      778.48852176  energy(sigma->0) =      778.48832546
  exchange ACFDT corr.  =         0.00000000  see jH, gK, PRB 81, 115126


--------------------------------------------------------------------------------------------------------




----------------------------------------- Iteration    1(   2)  ---------------------------------------


[...]
  band No.  band energies     occupation 
      1     -13.9032      2.00000
      2     -13.8505      2.00000
      3     -13.8505      2.00000
      4     -13.7835      2.00000
      5     -13.7835      2.00000
      6      -9.2867      2.00000
      7      -2.1013      2.00000
      8       2.5491      2.00000
      9       2.5491      2.00000
     10       5.5388      0.00000
     11       9.0495      0.00000
     12       9.0495      0.00000
     13      11.6196      0.00000
     14      13.2272      0.00000
     15      14.0176      0.00000
     16      14.0176      0.00000

 k-point   148 :       0.3333    0.3333    0.3333
  band No.  band energies     occupation 
      1     -13.9049      2.00000
      2     -13.8499      2.00000
      3     -13.8499      2.00000
      4     -13.7833      2.00000
      5     -13.7833      2.00000
      6      -9.2136      2.00000
      7      -2.2825      2.00000
      8       2.5154      2.00000
      9       2.5154      2.00000
     10       5.5058      0.00000
     11       9.0493      0.00000
     12       9.0493      0.00000
     13      11.7775      0.00000
     14      13.2441      0.00000
     15      14.1567      0.00000
     16      14.1567      0.00000

 k-point   149 :       0.3452    0.3452    0.3452
  band No.  band energies     occupation 
      1     -13.9065      2.00000
      2     -13.8494      2.00000
      3     -13.8494      2.00000
      4     -13.7832      2.00000
      5     -13.7832      2.00000
      6      -9.1408      2.00000
      7      -2.4561      2.00000
      8       2.4837      2.00000
      9       2.4837      2.00000
     10       5.4747      0.00000
     11       9.0463      0.00000
     12       9.0463      0.00000
     13      11.9110      0.00000
     14      13.2899      0.00000
     15      14.3069      0.00000
     16      14.3069      0.00000

 k-point   150 :       0.3571    0.3571    0.3571
  band No.  band energies     occupation 
      1     -13.9081      2.00000
      2     -13.8490      2.00000
      3     -13.8490      2.00000
      4     -13.7830      2.00000
      5     -13.7830      2.00000
      6      -9.0690      2.00000
      7      -2.6217      2.00000
      8       2.4541      2.00000
      9       2.4541      2.00000
     10       5.4455      0.00000
     11       9.0410      0.00000
     12       9.0410      0.00000
     13      12.0155      0.00000
     14      13.3692      0.00000
     15      14.4674      0.00000
     16      14.4675      0.00000

 k-point   151 :       0.3690    0.3690    0.3690
  band No.  band energies     occupation 
      1     -13.9095      2.00000
      2     -13.8485      2.00000
      3     -13.8485      2.00000
      4     -13.7828      2.00000
      5     -13.7828      2.00000
      6      -8.9987      2.00000
      7      -2.7784      2.00000
      8       2.4266      2.00000
      9       2.4266      2.00000
     10       5.4183      0.00000
     11       9.0340      0.00000
     12       9.0340      0.00000
     13      12.0901      0.00000
     14      13.4806      0.00000
     15      14.6373      0.00000
     16      14.6373      0.00000

 k-point   152 :       0.3810    0.3810    0.3810
  band No.  band energies     occupation 
      1     -13.9109      2.00000
      2     -13.8481      2.00000
      3     -13.8481      2.00000
      4     -13.7827      2.00000
      5     -13.7827      2.00000
      6      -8.9306      2.00000
      7      -2.9258      2.00000
      8       2.4014      2.00000
      9       2.4014      2.00000
     10       5.3933      0.00000
     11       9.0259      0.00000
     12       9.0259      0.00000
     13      12.1381      0.00000
     14      13.6223      0.00000
     15      14.8159      0.00000
     16      14.8158      0.00000

 k-point   153 :       0.3929    0.3929    0.3929
  band No.  band energies     occupation 
      1     -13.9121      2.00000
      2     -13.8478      2.00000
      3     -13.8478      2.00000
      4     -13.7825      2.00000
      5     -13.7825      2.00000
      6      -8.8653      2.00000
      7      -3.0628      2.00000
      8       2.3783      2.00000
      9       2.3783      2.00000
     10       5.3704      0.00000
     11       9.0171      0.00000
     12       9.0171      0.00000
     13      12.1657      0.00000
     14      13.7862      0.00000
     15      15.0020      0.00000
     16      15.0020      0.00000

 k-point   154 :       0.4048    0.4048    0.4048
  band No.  band energies     occupation 
      1     -13.9132      2.00000
      2     -13.8475      2.00000
      3     -13.8475      2.00000
      4     -13.7824      2.00000
      5     -13.7824      2.00000
      6      -8.8036      2.00000
      7      -3.1888      2.00000
      8       2.3576      2.00000
      9       2.3576      2.00000
     10       5.3499      0.00000
     11       9.0082      0.00000
     12       9.0082      0.00000
     13      12.1790      0.00000
     14      13.9654      0.00000
     15      15.1948      0.00000
     16      15.1949      0.00000

 k-point   155 :       0.4167    0.4167    0.4167
  band No.  band energies     occupation 
      1     -13.9142      2.00000
      2     -13.8472      2.00000
      3     -13.8472      2.00000
      4     -13.7822      2.00000
      5     -13.7822      2.00000
      6      -8.7464      2.00000
      7      -3.3029      2.00000
      8       2.3392      2.00000
      9       2.3392      2.00000
     10       5.3316      0.00000
     11       8.9994      0.00000
     12       8.9994      0.00000
     13      12.1830      0.00000
     14      14.1536      0.00000
     15      15.3931      0.00000
     16      15.3932      0.00000

 k-point   156 :       0.4286    0.4286    0.4286
  band No.  band energies     occupation 
      1     -13.9151      2.00000
      2     -13.8470      2.00000
      3     -13.8470      2.00000
      4     -13.7821      2.00000
      5     -13.7821      2.00000
      6      -8.6945      2.00000
      7      -3.4042      2.00000
      8       2.3232      2.00000
      9       2.3232      2.00000
     10       5.3157      0.00000
     11       8.9911      0.00000
     12       8.9911      0.00000
     13      12.1816      0.00000
     14      14.3432      0.00000
     15      15.5953      0.00000
     16      15.5967      0.00000

 k-point   157 :       0.4405    0.4405    0.4405
  band No.  band energies     occupation 
      1     -13.9159      2.00000
      2     -13.8468      2.00000
      3     -13.8468      2.00000
      4     -13.7820      2.00000
      5     -13.7820      2.00000
      6      -8.6487      2.00000
      7      -3.4918      2.00000
      8       2.3096      2.00000
      9       2.3096      2.00000
     10       5.3022      0.00000
     11       8.9836      0.00000
     12       8.9836      0.00000
     13      12.1773      0.00000
     14      14.5276      0.00000
     15      15.7991      0.00000
     16      15.7995      0.00000

 k-point   158 :       0.4524    0.4524    0.4524
  band No.  band energies     occupation 
      1     -13.9165      2.00000
      2     -13.8466      2.00000
      3     -13.8466      2.00000
      4     -13.7819      2.00000
      5     -13.7819      2.00000
      6      -8.6099      2.00000
      7      -3.5649      2.00000
      8       2.2985      2.00000
      9       2.2985      2.00000
     10       5.2911      0.00000
     11       8.9771      0.00000
     12       8.9771      0.00000
     13      12.1720      0.00000
     14      14.7029      0.00000
     15      16.0009      0.00000
     16      16.0010      0.00000

 k-point   159 :       0.4643    0.4643    0.4643
  band No.  band energies     occupation 
      1     -13.9170      2.00000
      2     -13.8465      2.00000
      3     -13.8465      2.00000
      4     -13.7818      2.00000
      5     -13.7818      2.00000
      6      -8.5788      2.00000
      7      -3.6226      2.00000
      8       2.2898      2.00000
      9       2.2898      2.00000
     10       5.2825      0.00000
     11       8.9719      0.00000
     12       8.9719      0.00000
     13      12.1668      0.00000
     14      14.8579      0.00000
     15      16.1942      0.00000
     16      16.1945      0.00000

 k-point   160 :       0.4762    0.4762    0.4762
  band No.  band energies     occupation 
      1     -13.9173      2.00000
      2     -13.8464      2.00000
      3     -13.8464      2.00000
      4     -13.7818      2.00000
      5     -13.7818      2.00000
      6      -8.5561      2.00000
      7      -3.6644      2.00000
      8       2.2836      2.00000
      9       2.2836      2.00000
     10       5.2763      0.00000
     11       8.9681      0.00000
     12       8.9681      0.00000
     13      12.1627      0.00000
     14      14.9821      0.00000
     15      16.3669      0.00000
     16      16.3683      0.00000

 k-point   161 :       0.4881    0.4881    0.4881
  band No.  band energies     occupation 
      1     -13.9176      2.00000
      2     -13.8463      2.00000
      3     -13.8463      2.00000
      4     -13.7817      2.00000
      5     -13.7817      2.00000
      6      -8.5423      2.00000
      7      -3.6897      2.00000
      8       2.2798      2.00000
      9       2.2798      2.00000
     10       5.2726      0.00000
     11       8.9657      0.00000
     12       8.9657      0.00000
     13      12.1600      0.00000
     14      15.0651      0.00000
     15      16.4969      0.00000
     16      16.5050      0.00000

 k-point   162 :       0.5000    0.5000    0.5000
  band No.  band energies     occupation 
      1     -13.9176      2.00000
      2     -13.8463      2.00000
      3     -13.8463      2.00000
      4     -13.7817      2.00000
      5     -13.7817      2.00000
      6      -8.5376      2.00000
      7      -3.6982      2.00000
      8       2.2786      2.00000
      9       2.2786      2.00000
     10       5.2714      0.00000
     11       8.9650      0.00000
     12       8.9650      0.00000
     13      12.1591      0.00000
     14      15.0936      0.00000
     15      16.5453      0.00000
     16      16.5589      0.00000


--------------------------------------------------------------------------------------------------------


 soft charge-density along one line, spin component           1
         0         1         2         3         4         5         6         7         8         9
 total charge-density along one line
 
 pseudopotential strength for first ion, spin component:           1
-11.427  -0.000  -0.000  -0.000   0.000   0.297   0.000   0.000
 -0.000 -11.427  -0.000   0.000   0.000   0.000   0.297   0.000
 -0.000  -0.000 -11.424  -0.000   0.000   0.000   0.000   0.296
 -0.000   0.000  -0.000 -11.427  -0.000   0.000  -0.000   0.000
  0.000   0.000   0.000  -0.000 -11.424  -0.000  -0.000  -0.000
  0.297   0.000   0.000   0.000  -0.000   4.977  -0.000  -0.000
  0.000   0.297   0.000  -0.000  -0.000  -0.000   4.977  -0.000
  0.000   0.000   0.296   0.000  -0.000  -0.000  -0.000   4.978
  0.000  -0.000   0.000   0.297   0.000  -0.000   0.000  -0.000
 -0.000  -0.000  -0.000   0.000   0.296  -0.000   0.000   0.000
  0.000  -0.000  -0.000  -0.000  -0.000  -0.000   0.000   0.000
 -0.000   0.000   0.000   0.000   0.000   0.000  -0.000  -0.000
 -0.000   0.000  -0.000  -0.002  -0.000   0.000  -0.000   0.000
 -0.002  -0.000  -0.000  -0.000  -0.000   0.001   0.000   0.000
 -0.000  -0.002  -0.000   0.000   0.000   0.000   0.001   0.000
  0.000  -0.000   0.000   0.010   0.000  -0.000   0.000  -0.000
  0.010   0.000   0.000   0.000   0.000  -0.007  -0.000  -0.000
  0.000   0.010   0.000  -0.000  -0.000  -0.000  -0.007  -0.000
 total augmentation occupancy for first ion, spin component:           1
  1.994   0.000   0.000   0.000  -0.000   0.002   0.000   0.000  -0.000  -0.000   0.000   0.000   0.000  -0.023  -0.000  -0.000
  0.000   1.994  -0.000   0.000   0.000   0.000   0.002  -0.000   0.000  -0.000   0.000  -0.000   0.000   0.000  -0.023   0.000
 -0.000   0.000   1.991   0.000   0.000   0.000   0.000  -0.009   0.000   0.000  -0.000   0.000  -0.000  -0.000   0.000   0.000
  0.000   0.000  -0.000   1.994   0.000  -0.000   0.000   0.000   0.002  -0.000  -0.000  -0.000  -0.023  -0.000   0.000  -0.002
 -0.000  -0.000   0.000   0.000   1.991  -0.000   0.000   0.000   0.000  -0.009   0.000   0.000   0.000   0.000   0.000   0.000
  0.002  -0.000   0.000   0.000   0.000   0.046   0.000   0.000   0.000   0.000  -0.000   0.000  -0.000  -0.164   0.000   0.000
  0.000   0.002  -0.000  -0.000   0.000   0.000   0.046   0.000  -0.000   0.000   0.000   0.000  -0.000  -0.000  -0.164   0.000
  0.000   0.000  -0.009   0.000   0.000   0.000   0.000   0.012   0.000   0.000   0.000   0.000  -0.000   0.000  -0.000   0.000
  0.000   0.000   0.000   0.002   0.000   0.000  -0.000   0.000   0.046  -0.000  -0.000  -0.000  -0.164   0.000   0.000  -0.003
 -0.000   0.000   0.000  -0.000  -0.009   0.000   0.000  -0.000  -0.000   0.012  -0.000  -0.000   0.000  -0.000   0.000  -0.000
  0.000   0.000   0.000  -0.000   0.000  -0.000   0.000   0.000   0.000  -0.000   1.411   0.042   0.000  -0.000   0.000   0.000
  0.000   0.000  -0.000   0.000  -0.000   0.000   0.000   0.000  -0.000  -0.000   0.042   0.002   0.000   0.000   0.000   0.000
 -0.000  -0.000   0.000  -0.023  -0.000   0.000  -0.000   0.000  -0.164   0.000   0.000  -0.000   0.945   0.000   0.000   0.019
 -0.023  -0.000  -0.000  -0.000  -0.000  -0.164  -0.000   0.000   0.000  -0.000   0.000  -0.000   0.000   0.945  -0.000  -0.000
 -0.000  -0.023  -0.000   0.000  -0.000   0.000  -0.164  -0.000   0.000   0.000   0.000  -0.000   0.000  -0.000   0.945  -0.000
 -0.000   0.000   0.000  -0.002   0.000  -0.000  -0.000  -0.000  -0.003   0.000   0.000   0.000   0.019   0.000   0.000   0.000
 -0.002  -0.000   0.000  -0.000  -0.000  -0.003  -0.000  -0.000   0.000  -0.000   0.000   0.000   0.000   0.019   0.000   0.000
 -0.000  -0.002  -0.000   0.000   0.000   0.000  -0.003   0.000  -0.000  -0.000   0.000  -0.000   0.000   0.000   0.019  -0.000


------------------------ aborting loop because EDIFF is reached ----------------------------------------


 


 total charge     
 
# of ion     s       p       d       tot
----------------------------------------
  1        0.840   0.802  10.010  11.652
  2        1.217   1.649   0.032   2.898
------------------------------------------------
tot        2.057   2.451  10.042  14.550
 
    FORLOC:  cpu time    0.0000: real time    0.0004
    FORHF :  cpu time  155.1897: real time  155.2887
    FORNL :  cpu time    0.0160: real time    0.0158
    STRESS:  cpu time    0.1800: real time    0.1823
    FORCOR:  cpu time    0.0240: real time    0.0226
    OFIELD:  cpu time    0.0000: real time    0.0001

  FORCE on cell =-STRESS in cart. coord.  units (eV):
  Direction    XX          YY          ZZ          XY          YZ          ZX
  --------------------------------------------------------------------------------------
  Alpha Z    60.29113    60.29113    60.29113
  Ewald    -421.83412  -421.83412  -421.83412    -0.00000    -0.00000    -0.00000
  Hartree   241.17621   241.17621   241.17621     0.00000    -0.00000    -0.00000
  E(xc)     -74.01919   -74.01919   -74.01919     0.00001    -0.00001    -0.00001
  Local     -60.29740   -60.29740   -60.29740     0.00011    -0.00011    -0.00011
  n-local   153.61069   157.37293   156.81845    -0.81181    -1.63134    -0.52023
  augment   108.13454   108.13454   108.13454    -0.00010     0.00010     0.00010
  Kinetic   106.75708   111.08708   111.90769    -1.59986    -3.94471    -1.30186
  Fock            NaN         NaN         NaN         NaN         NaN         NaN
  -------------------------------------------------------------------------------------
  Total           NaN         NaN         NaN         NaN         NaN         NaN
  in kB           NaN         NaN         NaN         NaN         NaN         NaN
  external pressure =         NaN kB  Pullay stress =        0.00 kB


 VOLUME and BASIS-vectors are now :
 -----------------------------------------------------------------------------
  energy-cutoff  :      500.00
  volume of cell :       45.18
      direct lattice vectors                 reciprocal lattice vectors
     2.826800000  2.826800000  0.000000000     0.176878449  0.176878449  0.176878449
     2.826800000  0.000000000 -2.826800000     0.176878449 -0.176878449 -0.176878449
     0.000000000  2.826800000 -2.826800000    -0.176878449  0.176878449 -0.176878449

  length of vectors
     3.997698898  3.997698898  3.997698898     0.306362461  0.306362461  0.306362461


 FORCES acting on ions:
    Electron-Ion                     Ewald-Force                    Non-Local-Force
 -----------------------------------------------------------------------------------------------
   0.302E-06 0.321E-06 -.321E-06   -.206E-13 -.524E-14 0.156E-13   -.382E-16 -.416E-16 0.833E-16
   -.256E-06 -.384E-06 0.384E-06   0.196E-13 0.339E-14 -.154E-13   -.156E-16 -.278E-16 0.278E-16
 -----------------------------------------------------------------------------------------------
   0.480E-06 0.365E-06 -.365E-06   -.109E-14 -.185E-14 0.200E-15   -.538E-16 -.694E-16 0.111E-15
 
 
 POSITION                                       TOTAL-FORCE (eV/Angst)
 -----------------------------------------------------------------------------------
      0.00000      0.00000      0.00000              NaN           NaN           NaN
      1.41340      1.41340     -1.41340              NaN           NaN           NaN
 -----------------------------------------------------------------------------------
    total drift:                                     NaN           NaN           NaN


--------------------------------------------------------------------------------------------------------



  FREE ENERGIE OF THE ION-ELECTRON SYSTEM (eV)
  ---------------------------------------------------
  free  energy   TOTEN  =        -9.84572128 eV

  energy  without entropy=       -9.84572128  energy(sigma->0) =       -9.84572128
 


--------------------------------------------------------------------------------------------------------


    POTLOK:  cpu time    0.2640: real time    0.2652


--------------------------------------------------------------------------------------------------------




--------------------------------------------------------------------------------------------------------


  
 reached required accuracy - stopping structural energy minimisation
 writing wavefunctions
     LOOP+:  cpu time 1436.6018: real time 1452.7205
    4ORBIT:  cpu time    0.0000: real time    0.0000
 


 total charge     
 
# of ion     s       p       d       tot
----------------------------------------
  1        0.840   0.802  10.010  11.652
  2        1.217   1.649   0.032   2.898
------------------------------------------------
tot        2.057   2.451  10.042  14.550
 

 total amount of memory used by VASP on root node    52359. kBytes
========================================================================

   base      :      30000. kBytes
   nonl-proj :      11765. kBytes
   fftplans  :        555. kBytes
   grid      :        801. kBytes
   one-center:         15. kBytes
   HF        :         64. kBytes
   nonlr-proj:        699. kBytes
   wavefun   :       8460. kBytes
 
  
  
 General timing and accounting informations for this job:
 ========================================================
  
                  Total CPU time used (sec):     1468.952
                            User time (sec):     1466.932
                          System time (sec):        2.020
                         Elapsed time (sec):     1486.423
  
                   Maximum memory used (kb):      150392.
                   Average memory used (kb):           0.
  
                          Minor page faults:        38189
                          Major page faults:            0
                 Voluntary context switches:         3881
