PROCAR new format
# of k-points:  162         # of bands:  16         # of ions:   2

 k-point    1 :    0.00000000 0.00000000 0.00000000     weight = 0.00462963

band   1 # energy  -13.86451259 # occ.  2.00000000
 
ion      s      p      d    tot
  1  0.000  0.000  0.985  0.985
  2  0.000  0.003  0.000  0.003
tot  0.000  0.003  0.986  0.989
 
band   2 # energy  -13.86451315 # occ.  2.00000000
 
ion      s      p      d    tot
  1  0.000  0.000  0.985  0.985
  2  0.000  0.003  0.000  0.003
tot  0.000  0.003  0.986  0.989
 
band   3 # energy  -13.86451277 # occ.  2.00000000
 
ion      s      p      d    tot
  1  0.000  0.000  0.985  0.985
  2  0.000  0.003  0.000  0.003
tot  0.000  0.003  0.986  0.989
 
band   4 # energy  -13.78426045 # occ.  2.00000000
 
ion      s      p      d    tot
  1  0.000  0.000  0.991  0.991
  2  0.000  0.000  0.000  0.000
tot  0.000  0.000  0.991  0.991
 
band   5 # energy  -13.78426047 # occ.  2.00000000
 
ion      s      p      d    tot
  1  0.000  0.000  0.991  0.991
  2  0.000  0.000  0.000  0.000
tot  0.000  0.000  0.991  0.991
 
band   6 # energy  -10.45746757 # occ.  2.00000000
 
ion      s      p      d    tot
  1  0.175  0.000  0.000  0.175
  2  0.432  0.000  0.000  0.432
tot  0.606  0.000  0.000  0.606
 
band   7 # energy    3.50846118 # occ.  2.00000000
 
ion      s      p      d    tot
  1  0.000  0.102  0.062  0.164
  2  0.000  0.456  0.006  0.462
tot  0.000  0.558  0.068  0.626
 
band   8 # energy    3.50846460 # occ.  2.00000000
 
ion      s      p      d    tot
  1  0.000  0.102  0.062  0.164
  2  0.000  0.456  0.006  0.462
tot  0.000  0.558  0.068  0.626
 
band   9 # energy    3.50846429 # occ.  2.00000000
 
ion      s      p      d    tot
  1  0.000  0.102  0.062  0.164
  2  0.000  0.456  0.006  0.462
tot  0.000  0.558  0.068  0.626
 
band  10 # energy    4.92294098 # occ.  0.00000000
 
ion      s      p      d    tot
  1  0.410  0.000  0.000  0.410
  2  0.370  0.000  0.000  0.370
tot  0.779  0.000  0.000  0.779
 
band  11 # energy    8.04572974 # occ.  0.00000000
 
ion      s      p      d    tot
  1  0.000  0.386  0.009  0.395
  2  0.000  0.040  0.070  0.111
tot  0.000  0.426  0.079  0.505
 
band  12 # energy    8.04573581 # occ.  0.00000000
 
ion      s      p      d    tot
  1  0.000  0.386  0.009  0.395
  2  0.000  0.040  0.070  0.111
tot  0.000  0.426  0.079  0.505
 
band  13 # energy    8.04573698 # occ.  0.00000000
 
ion      s      p      d    tot
  1  0.000  0.386  0.009  0.395
  2  0.000  0.040  0.070  0.111
tot  0.000  0.426  0.079  0.505
 
band  14 # energy   12.08408479 # occ.  0.00000000
 
ion      s      p      d    tot
  1  0.271  0.000  0.000  0.271
  2  0.018  0.000  0.000  0.018
tot  0.289  0.000  0.000  0.289
 
band  15 # energy   14.60209518 # occ.  0.00000000
 
ion      s      p      d    tot
  1  0.000  0.000  0.174  0.174
  2  0.000  0.000  0.191  0.191
tot  0.000  0.000  0.365  0.365
 
band  16 # energy   14.60671062 # occ.  0.00000000
 
ion      s      p      d    tot
  1  0.000  0.000  0.174  0.174
  2  0.000  0.000  0.190  0.191
tot  0.000  0.000  0.365  0.365
 

 k-point    2 :    0.16666667 0.00000000 0.00000000     weight = 0.03703704

band   1 # energy  -13.87842793 # occ.  2.00000000
 
ion      s      p      d    tot
  1  0.000  0.000  0.980  0.980
  2  0.004  0.002  0.000  0.007
tot  0.005  0.002  0.980  0.987
 
band   2 # energy  -13.85914364 # occ.  2.00000000
 
ion      s      p      d    tot
  1  0.000  0.000  0.986  0.986
  2  0.000  0.003  0.000  0.003
tot  0.000  0.003  0.986  0.989
 
band   3 # energy  -13.85914312 # occ.  2.00000000
 
ion      s      p      d    tot
  1  0.000  0.000  0.986  0.986
  2  0.000  0.003  0.000  0.003
tot  0.000  0.003  0.986  0.989
 
band   4 # energy  -13.78449263 # occ.  2.00000000
 
ion      s      p      d    tot
  1  0.000  0.000  0.991  0.991
  2  0.000  0.000  0.000  0.000
tot  0.000  0.000  0.991  0.991
 
band   5 # energy  -13.78449246 # occ.  2.00000000
 
ion      s      p      d    tot
  1  0.000  0.000  0.991  0.991
  2  0.000  0.000  0.000  0.000
tot  0.000  0.000  0.991  0.991
 
band   6 # energy  -10.11318147 # occ.  2.00000000
 
ion      s      p      d    tot
  1  0.164  0.005  0.006  0.175
  2  0.437  0.003  0.000  0.440
tot  0.601  0.008  0.007  0.615
 
band   7 # energy    0.72064392 # occ.  2.00000000
 
ion      s      p      d    tot
  1  0.155  0.083  0.031  0.270
  2  0.115  0.236  0.006  0.356
tot  0.270  0.319  0.037  0.626
 
band   8 # energy    3.10764692 # occ.  2.00000000
 
ion      s      p      d    tot
  1  0.000  0.131  0.050  0.180
  2  0.000  0.422  0.007  0.429
tot  0.000  0.553  0.056  0.609
 
band   9 # energy    3.10764611 # occ.  2.00000000
 
ion      s      p      d    tot
  1  0.000  0.131  0.050  0.180
  2  0.000  0.422  0.007  0.429
tot  0.000  0.553  0.056  0.609
 
band  10 # energy    5.96442050 # occ.  0.00000000
 
ion      s      p      d    tot
  1  0.269  0.091  0.006  0.367
  2  0.185  0.082  0.016  0.283
tot  0.455  0.173  0.022  0.650
 
band  11 # energy    8.62728532 # occ.  0.00000000
 
ion      s      p      d    tot
  1  0.000  0.356  0.020  0.376
  2  0.000  0.073  0.069  0.142
tot  0.000  0.429  0.089  0.518
 
band  12 # energy    8.62729043 # occ.  0.00000000
 
ion      s      p      d    tot
  1  0.000  0.356  0.020  0.376
  2  0.000  0.073  0.069  0.142
tot  0.000  0.429  0.089  0.518
 
band  13 # energy    9.05190305 # occ.  0.00000000
 
ion      s      p      d    tot
  1  0.074  0.179  0.027  0.280
  2  0.059  0.172  0.040  0.271
tot  0.133  0.351  0.067  0.551
 
band  14 # energy   13.46099063 # occ.  0.00000000
 
ion      s      p      d    tot
  1  0.000  0.009  0.131  0.139
  2  0.000  0.002  0.130  0.133
tot  0.000  0.011  0.261  0.272
 
band  15 # energy   13.46213325 # occ.  0.00000000
 
ion      s      p      d    tot
  1  0.005  0.012  0.127  0.144
  2  0.000  0.003  0.127  0.130
tot  0.005  0.015  0.254  0.274
 
band  16 # energy   13.48357822 # occ.  0.00000000
 
ion      s      p      d    tot
  1  0.140  0.109  0.008  0.257
  2  0.009  0.019  0.013  0.041
tot  0.149  0.128  0.021  0.298
 

 k-point    3 :    0.33333333 0.00000000 0.00000000     weight = 0.03703704

band   1 # energy  -13.90491151 # occ.  2.00000000
 
ion      s      p      d    tot
  1  0.001  0.000  0.971  0.972
  2  0.012  0.001  0.000  0.013
tot  0.012  0.001  0.971  0.984
 
band   2 # energy  -13.84992092 # occ.  2.00000000
 
ion      s      p      d    tot
  1  0.000  0.000  0.987  0.987
  2  0.000  0.002  0.000  0.003
tot  0.000  0.002  0.987  0.990
 
band   3 # energy  -13.84992092 # occ.  2.00000000
 
ion      s      p      d    tot
  1  0.000  0.000  0.987  0.987
  2  0.000  0.002  0.000  0.003
tot  0.000  0.002  0.987  0.990
 
band   4 # energy  -13.78332170 # occ.  2.00000000
 
ion      s      p      d    tot
  1  0.000  0.000  0.991  0.991
  2  0.000  0.000  0.000  0.000
tot  0.000  0.000  0.991  0.991
 
band   5 # energy  -13.78332237 # occ.  2.00000000
 
ion      s      p      d    tot
  1  0.000  0.000  0.991  0.991
  2  0.000  0.000  0.000  0.000
tot  0.000  0.000  0.991  0.991
 
band   6 # energy   -9.21355324 # occ.  2.00000000
 
ion      s      p      d    tot
  1  0.128  0.018  0.021  0.167
  2  0.470  0.006  0.000  0.476
tot  0.598  0.024  0.021  0.643
 
band   7 # energy   -2.28244810 # occ.  2.00000000
 
ion      s      p      d    tot
  1  0.213  0.072  0.013  0.298
  2  0.085  0.181  0.004  0.270
tot  0.298  0.253  0.016  0.567
 
band   8 # energy    2.51540161 # occ.  2.00000000
 
ion      s      p      d    tot
  1  0.000  0.161  0.034  0.195
  2  0.000  0.392  0.006  0.398
tot  0.000  0.554  0.040  0.593
 
band   9 # energy    2.51540010 # occ.  2.00000000
 
ion      s      p      d    tot
  1  0.000  0.161  0.034  0.195
  2  0.000  0.392  0.006  0.398
tot  0.000  0.554  0.040  0.593
 
band  10 # energy    5.50584966 # occ.  0.00000000
 
ion      s      p      d    tot
  1  0.282  0.070  0.015  0.367
  2  0.153  0.044  0.026  0.223
tot  0.435  0.113  0.041  0.590
 
band  11 # energy    9.04930886 # occ.  0.00000000
 
ion      s      p      d    tot
  1  0.000  0.270  0.044  0.313
  2  0.000  0.073  0.072  0.145
tot  0.000  0.343  0.115  0.459
 
band  12 # energy    9.04931474 # occ.  0.00000000
 
ion      s      p      d    tot
  1  0.000  0.270  0.044  0.313
  2  0.000  0.073  0.072  0.145
tot  0.000  0.343  0.115  0.459
 
band  13 # energy   11.77752347 # occ.  0.00000000
 
ion      s      p      d    tot
  1  0.032  0.101  0.028  0.160
  2  0.036  0.259  0.013  0.307
tot  0.067  0.359  0.041  0.467
 
band  14 # energy   13.24403377 # occ.  0.00000000
 
ion      s      p      d    tot
  1  0.116  0.044  0.013  0.174
  2  0.032  0.019  0.018  0.069
tot  0.148  0.063  0.032  0.243
 
band  15 # energy   14.15670435 # occ.  0.00000000
 
ion      s      p      d    tot
  1  0.000  0.066  0.111  0.177
  2  0.000  0.031  0.126  0.157
tot  0.000  0.097  0.238  0.335
 
band  16 # energy   14.15676749 # occ.  0.00000000
 
ion      s      p      d    tot
  1  0.000  0.066  0.111  0.178
  2  0.000  0.031  0.126  0.157
tot  0.000  0.097  0.237  0.335
 

 k-point    4 :    0.50000000 0.00000000 0.00000000     weight = 0.01851852

band   1 # energy  -13.91761790 # occ.  2.00000000
 
ion      s      p      d    tot
  1  0.001  0.000  0.967  0.968
  2  0.015  0.000  0.000  0.015
tot  0.015  0.000  0.967  0.983
 
band   2 # energy  -13.84629101 # occ.  2.00000000
 
ion      s      p      d    tot
  1  0.000  0.000  0.987  0.987
  2  0.000  0.002  0.000  0.003
tot  0.000  0.002  0.987  0.990
 
band   3 # energy  -13.84629114 # occ.  2.00000000
 
ion      s      p      d    tot
  1  0.000  0.000  0.987  0.987
  2  0.000  0.002  0.000  0.003
tot  0.000  0.002  0.987  0.990
 
band   4 # energy  -13.78172835 # occ.  2.00000000
 
ion      s      p      d    tot
  1  0.000  0.000  0.991  0.991
  2  0.000  0.000  0.000  0.000
tot  0.000  0.000  0.991  0.991
 
band   5 # energy  -13.78172718 # occ.  2.00000000
 
ion      s      p      d    tot
  1  0.000  0.000  0.991  0.991
  2  0.000  0.000  0.000  0.000
tot  0.000  0.000  0.991  0.991
 
band   6 # energy   -8.53763468 # occ.  2.00000000
 
ion      s      p      d    tot
  1  0.089  0.029  0.032  0.149
  2  0.524  0.002  0.001  0.527
tot  0.613  0.030  0.033  0.676
 
band   7 # energy   -3.69815191 # occ.  2.00000000
 
ion      s      p      d    tot
  1  0.258  0.061  0.000  0.320
  2  0.030  0.171  0.002  0.203
tot  0.288  0.233  0.003  0.523
 
band   8 # energy    2.27858962 # occ.  2.00000000
 
ion      s      p      d    tot
  1  0.000  0.171  0.029  0.200
  2  0.000  0.385  0.005  0.389
tot  0.000  0.556  0.033  0.589
 
band   9 # energy    2.27858822 # occ.  2.00000000
 
ion      s      p      d    tot
  1  0.000  0.171  0.029  0.200
  2  0.000  0.385  0.005  0.389
tot  0.000  0.556  0.033  0.589
 
band  10 # energy    5.27136330 # occ.  0.00000000
 
ion      s      p      d    tot
  1  0.295  0.051  0.019  0.365
  2  0.154  0.038  0.027  0.219
tot  0.449  0.089  0.047  0.585
 
band  11 # energy    8.96495070 # occ.  0.00000000
 
ion      s      p      d    tot
  1  0.000  0.226  0.054  0.280
  2  0.000  0.062  0.074  0.136
tot  0.000  0.288  0.129  0.416
 
band  12 # energy    8.96495825 # occ.  0.00000000
 
ion      s      p      d    tot
  1  0.000  0.226  0.054  0.280
  2  0.000  0.062  0.074  0.136
tot  0.000  0.288  0.129  0.416
 
band  13 # energy   12.15906952 # occ.  0.00000000
 
ion      s      p      d    tot
  1  0.009  0.042  0.031  0.081
  2  0.002  0.093  0.004  0.100
tot  0.010  0.135  0.035  0.181
 
band  14 # energy   15.09272423 # occ.  0.00000000
 
ion      s      p      d    tot
  1  0.118  0.007  0.009  0.134
  2  0.002  0.332  0.013  0.346
tot  0.120  0.339  0.021  0.480
 
band  15 # energy   16.54572351 # occ.  0.00000000
 
ion      s      p      d    tot
  1  0.000  0.172  0.034  0.206
  2  0.000  0.072  0.128  0.200
tot  0.000  0.244  0.162  0.406
 
band  16 # energy   16.54868149 # occ.  0.00000000
 
ion      s      p      d    tot
  1  0.000  0.171  0.034  0.205
  2  0.000  0.071  0.131  0.202
tot  0.000  0.241  0.165  0.407
 

 k-point    5 :    0.16666667 0.16666667 0.00000000     weight = 0.02777778

band   1 # energy  -13.88821641 # occ.  2.00000000
 
ion      s      p      d    tot
  1  0.000  0.000  0.978  0.978
  2  0.006  0.002  0.000  0.008
tot  0.006  0.002  0.978  0.986
 
band   2 # energy  -13.85381105 # occ.  2.00000000
 
ion      s      p      d    tot
  1  0.000  0.000  0.986  0.987
  2  0.000  0.003  0.000  0.003
tot  0.000  0.003  0.987  0.989
 
band   3 # energy  -13.85381083 # occ.  2.00000000
 
ion      s      p      d    tot
  1  0.000  0.000  0.986  0.987
  2  0.000  0.003  0.000  0.003
tot  0.000  0.003  0.987  0.989
 
band   4 # energy  -13.78877706 # occ.  2.00000000
 
ion      s      p      d    tot
  1  0.000  0.000  0.990  0.990
  2  0.000  0.000  0.000  0.000
tot  0.000  0.000  0.990  0.990
 
band   5 # energy  -13.78153055 # occ.  2.00000000
 
ion      s      p      d    tot
  1  0.000  0.000  0.991  0.991
  2  0.000  0.000  0.000  0.000
tot  0.000  0.000  0.991  0.991
 
band   6 # energy   -9.99712288 # occ.  2.00000000
 
ion      s      p      d    tot
  1  0.159  0.007  0.008  0.174
  2  0.439  0.004  0.000  0.443
tot  0.599  0.011  0.008  0.618
 
band   7 # energy    0.76524060 # occ.  2.00000000
 
ion      s      p      d    tot
  1  0.210  0.054  0.035  0.299
  2  0.152  0.220  0.006  0.377
tot  0.362  0.274  0.041  0.677
 
band   8 # energy    2.43395152 # occ.  2.00000000
 
ion      s      p      d    tot
  1  0.000  0.154  0.037  0.191
  2  0.000  0.375  0.007  0.382
tot  0.000  0.529  0.044  0.573
 
band   9 # energy    2.43395302 # occ.  2.00000000
 
ion      s      p      d    tot
  1  0.000  0.154  0.037  0.191
  2  0.000  0.375  0.007  0.382
tot  0.000  0.529  0.044  0.573
 
band  10 # energy    6.79575009 # occ.  0.00000000
 
ion      s      p      d    tot
  1  0.183  0.123  0.026  0.332
  2  0.002  0.121  0.044  0.166
tot  0.185  0.244  0.069  0.498
 
band  11 # energy    7.44717735 # occ.  0.00000000
 
ion      s      p      d    tot
  1  0.107  0.181  0.006  0.294
  2  0.182  0.134  0.014  0.329
tot  0.290  0.315  0.019  0.624
 
band  12 # energy    9.68924677 # occ.  0.00000000
 
ion      s      p      d    tot
  1  0.000  0.333  0.031  0.364
  2  0.000  0.127  0.071  0.199
tot  0.000  0.460  0.102  0.562
 
band  13 # energy    9.68925292 # occ.  0.00000000
 
ion      s      p      d    tot
  1  0.000  0.333  0.031  0.364
  2  0.000  0.127  0.071  0.199
tot  0.000  0.460  0.102  0.562
 
band  14 # energy   11.82005236 # occ.  0.00000000
 
ion      s      p      d    tot
  1  0.009  0.001  0.103  0.113
  2  0.026  0.016  0.084  0.126
tot  0.035  0.017  0.187  0.239
 
band  15 # energy   14.25271221 # occ.  0.00000000
 
ion      s      p      d    tot
  1  0.179  0.156  0.004  0.339
  2  0.004  0.020  0.017  0.041
tot  0.184  0.175  0.021  0.380
 
band  16 # energy   15.07547022 # occ.  0.00000000
 
ion      s      p      d    tot
  1  0.000  0.000  0.165  0.165
  2  0.000  0.000  0.196  0.196
tot  0.000  0.000  0.360  0.360
 

 k-point    6 :    0.33333333 0.16666667 0.00000000     weight = 0.11111111

band   1 # energy  -13.90937535 # occ.  2.00000000
 
ion      s      p      d    tot
  1  0.000  0.000  0.971  0.972
  2  0.011  0.001  0.000  0.012
tot  0.012  0.001  0.971  0.984
 
band   2 # energy  -13.84572418 # occ.  2.00000000
 
ion      s      p      d    tot
  1  0.000  0.000  0.987  0.987
  2  0.000  0.002  0.000  0.003
tot  0.000  0.002  0.988  0.990
 
band   3 # energy  -13.84367630 # occ.  2.00000000
 
ion      s      p      d    tot
  1  0.000  0.000  0.987  0.988
  2  0.000  0.002  0.000  0.002
tot  0.000  0.002  0.988  0.990
 
band   4 # energy  -13.79135896 # occ.  2.00000000
 
ion      s      p      d    tot
  1  0.000  0.000  0.990  0.990
  2  0.000  0.000  0.000  0.000
tot  0.000  0.000  0.990  0.990
 
band   5 # energy  -13.77957449 # occ.  2.00000000
 
ion      s      p      d    tot
  1  0.000  0.000  0.991  0.991
  2  0.000  0.000  0.000  0.000
tot  0.000  0.000  0.991  0.991
 
band   6 # energy   -9.26647365 # occ.  2.00000000
 
ion      s      p      d    tot
  1  0.130  0.018  0.018  0.167
  2  0.464  0.007  0.000  0.471
tot  0.594  0.025  0.019  0.638
 
band   7 # energy   -1.54490710 # occ.  2.00000000
 
ion      s      p      d    tot
  1  0.241  0.059  0.020  0.319
  2  0.117  0.182  0.005  0.304
tot  0.358  0.241  0.025  0.623
 
band   8 # energy    1.55811726 # occ.  2.00000000
 
ion      s      p      d    tot
  1  0.038  0.150  0.026  0.213
  2  0.016  0.312  0.007  0.336
tot  0.055  0.462  0.032  0.549
 
band   9 # energy    1.82396787 # occ.  2.00000000
 
ion      s      p      d    tot
  1  0.000  0.172  0.025  0.198
  2  0.000  0.352  0.005  0.358
tot  0.000  0.525  0.030  0.555
 
band  10 # energy    6.74871269 # occ.  0.00000000
 
ion      s      p      d    tot
  1  0.154  0.104  0.033  0.291
  2  0.045  0.121  0.038  0.204
tot  0.199  0.225  0.070  0.495
 
band  11 # energy    8.17689081 # occ.  0.00000000
 
ion      s      p      d    tot
  1  0.110  0.186  0.016  0.312
  2  0.084  0.135  0.030  0.249
tot  0.194  0.321  0.046  0.561
 
band  12 # energy    9.97590460 # occ.  0.00000000
 
ion      s      p      d    tot
  1  0.001  0.145  0.063  0.208
  2  0.012  0.076  0.070  0.158
tot  0.013  0.221  0.132  0.366
 
band  13 # energy   10.52958402 # occ.  0.00000000
 
ion      s      p      d    tot
  1  0.000  0.278  0.047  0.325
  2  0.000  0.132  0.075  0.207
tot  0.000  0.410  0.123  0.532
 
band  14 # energy   13.39261378 # occ.  0.00000000
 
ion      s      p      d    tot
  1  0.033  0.105  0.064  0.203
  2  0.040  0.184  0.055  0.279
tot  0.073  0.289  0.119  0.481
 
band  15 # energy   15.33567684 # occ.  0.00000000
 
ion      s      p      d    tot
  1  0.068  0.114  0.031  0.213
  2  0.003  0.018  0.047  0.068
tot  0.071  0.132  0.078  0.281
 
band  16 # energy   15.46858943 # occ.  0.00000000
 
ion      s      p      d    tot
  1  0.000  0.046  0.122  0.168
  2  0.000  0.022  0.160  0.182
tot  0.000  0.068  0.282  0.350
 

 k-point    7 :    0.50000000 0.16666667 0.00000000     weight = 0.11111111

band   1 # energy  -13.92216671 # occ.  2.00000000
 
ion      s      p      d    tot
  1  0.000  0.000  0.967  0.967
  2  0.015  0.000  0.000  0.016
tot  0.016  0.001  0.967  0.983
 
band   2 # energy  -13.84253530 # occ.  2.00000000
 
ion      s      p      d    tot
  1  0.000  0.000  0.987  0.988
  2  0.000  0.002  0.000  0.002
tot  0.000  0.002  0.988  0.990
 
band   3 # energy  -13.83922499 # occ.  2.00000000
 
ion      s      p      d    tot
  1  0.000  0.000  0.988  0.988
  2  0.000  0.002  0.000  0.002
tot  0.000  0.002  0.988  0.990
 
band   4 # energy  -13.78807408 # occ.  2.00000000
 
ion      s      p      d    tot
  1  0.000  0.000  0.990  0.990
  2  0.000  0.000  0.000  0.000
tot  0.000  0.000  0.990  0.991
 
band   5 # energy  -13.78030205 # occ.  2.00000000
 
ion      s      p      d    tot
  1  0.000  0.000  0.991  0.991
  2  0.000  0.000  0.000  0.000
tot  0.000  0.000  0.991  0.991
 
band   6 # energy   -8.39180079 # occ.  2.00000000
 
ion      s      p      d    tot
  1  0.078  0.033  0.032  0.143
  2  0.529  0.004  0.001  0.534
tot  0.607  0.037  0.032  0.676
 
band   7 # energy   -3.40765512 # occ.  2.00000000
 
ion      s      p      d    tot
  1  0.293  0.050  0.003  0.347
  2  0.042  0.168  0.004  0.213
tot  0.335  0.218  0.007  0.560
 
band   8 # energy    0.71798604 # occ.  2.00000000
 
ion      s      p      d    tot
  1  0.056  0.143  0.019  0.218
  2  0.024  0.279  0.006  0.308
tot  0.079  0.422  0.025  0.527
 
band   9 # energy    1.74253419 # occ.  2.00000000
 
ion      s      p      d    tot
  1  0.000  0.179  0.022  0.201
  2  0.000  0.355  0.004  0.359
tot  0.000  0.534  0.026  0.560
 
band  10 # energy    6.59536294 # occ.  0.00000000
 
ion      s      p      d    tot
  1  0.179  0.090  0.032  0.300
  2  0.078  0.107  0.034  0.219
tot  0.257  0.197  0.066  0.520
 
band  11 # energy    8.81197446 # occ.  0.00000000
 
ion      s      p      d    tot
  1  0.058  0.146  0.040  0.244
  2  0.029  0.124  0.050  0.203
tot  0.087  0.270  0.090  0.447
 
band  12 # energy   10.18695524 # occ.  0.00000000
 
ion      s      p      d    tot
  1  0.000  0.223  0.058  0.281
  2  0.000  0.099  0.077  0.176
tot  0.000  0.322  0.135  0.457
 
band  13 # energy   11.52287240 # occ.  0.00000000
 
ion      s      p      d    tot
  1  0.023  0.156  0.052  0.231
  2  0.018  0.142  0.054  0.214
tot  0.041  0.297  0.107  0.445
 
band  14 # energy   14.39186990 # occ.  0.00000000
 
ion      s      p      d    tot
  1  0.011  0.098  0.056  0.165
  2  0.003  0.110  0.036  0.150
tot  0.014  0.209  0.093  0.315
 
band  15 # energy   16.22251523 # occ.  0.00000000
 
ion      s      p      d    tot
  1  0.075  0.058  0.039  0.173
  2  0.014  0.150  0.025  0.189
tot  0.090  0.208  0.063  0.361
 
band  16 # energy   16.54928633 # occ.  0.00000000
 
ion      s      p      d    tot
  1  0.000  0.149  0.063  0.212
  2  0.000  0.061  0.141  0.202
tot  0.000  0.210  0.204  0.413
 

 k-point    8 :   -0.33333333 0.16666667 0.00000000     weight = 0.11111111

band   1 # energy  -13.91673257 # occ.  2.00000000
 
ion      s      p      d    tot
  1  0.000  0.000  0.968  0.969
  2  0.015  0.000  0.000  0.015
tot  0.015  0.001  0.968  0.984
 
band   2 # energy  -13.84375071 # occ.  2.00000000
 
ion      s      p      d    tot
  1  0.000  0.000  0.987  0.987
  2  0.000  0.002  0.000  0.002
tot  0.000  0.002  0.988  0.990
 
band   3 # energy  -13.84300778 # occ.  2.00000000
 
ion      s      p      d    tot
  1  0.000  0.000  0.988  0.988
  2  0.000  0.002  0.000  0.002
tot  0.000  0.002  0.988  0.990
 
band   4 # energy  -13.78492723 # occ.  2.00000000
 
ion      s      p      d    tot
  1  0.000  0.000  0.991  0.991
  2  0.000  0.000  0.000  0.000
tot  0.000  0.000  0.991  0.991
 
band   5 # energy  -13.78371464 # occ.  2.00000000
 
ion      s      p      d    tot
  1  0.000  0.000  0.991  0.991
  2  0.000  0.000  0.000  0.000
tot  0.000  0.000  0.991  0.991
 
band   6 # energy   -8.64035472 # occ.  2.00000000
 
ion      s      p      d    tot
  1  0.096  0.028  0.028  0.153
  2  0.505  0.006  0.001  0.512
tot  0.602  0.034  0.029  0.664
 
band   7 # energy   -2.93803193 # occ.  2.00000000
 
ion      s      p      d    tot
  1  0.275  0.055  0.008  0.337
  2  0.068  0.169  0.004  0.241
tot  0.342  0.224  0.012  0.578
 
band   8 # energy    0.49180901 # occ.  2.00000000
 
ion      s      p      d    tot
  1  0.046  0.148  0.017  0.211
  2  0.018  0.275  0.005  0.297
tot  0.064  0.422  0.023  0.509
 
band   9 # energy    2.21841841 # occ.  2.00000000
 
ion      s      p      d    tot
  1  0.000  0.171  0.028  0.200
  2  0.000  0.378  0.005  0.383
tot  0.000  0.549  0.033  0.582
 
band  10 # energy    6.78704105 # occ.  0.00000000
 
ion      s      p      d    tot
  1  0.206  0.098  0.025  0.330
  2  0.094  0.113  0.031  0.237
tot  0.300  0.211  0.056  0.567
 
band  11 # energy    9.04924404 # occ.  0.00000000
 
ion      s      p      d    tot
  1  0.030  0.144  0.047  0.221
  2  0.019  0.109  0.055  0.183
tot  0.049  0.252  0.102  0.404
 
band  12 # energy    9.72570460 # occ.  0.00000000
 
ion      s      p      d    tot
  1  0.000  0.259  0.046  0.305
  2  0.000  0.091  0.071  0.161
tot  0.000  0.350  0.116  0.466
 
band  13 # energy   11.66654537 # occ.  0.00000000
 
ion      s      p      d    tot
  1  0.048  0.123  0.037  0.208
  2  0.030  0.228  0.036  0.295
tot  0.078  0.351  0.073  0.502
 
band  14 # energy   13.50334262 # occ.  0.00000000
 
ion      s      p      d    tot
  1  0.000  0.066  0.114  0.180
  2  0.000  0.026  0.124  0.150
tot  0.000  0.093  0.238  0.331
 
band  15 # energy   14.60814401 # occ.  0.00000000
 
ion      s      p      d    tot
  1  0.025  0.197  0.040  0.261
  2  0.007  0.067  0.032  0.106
tot  0.032  0.264  0.072  0.368
 
band  16 # energy   16.37925209 # occ.  0.00000000
 
ion      s      p      d    tot
  1  0.046  0.081  0.064  0.192
  2  0.028  0.048  0.055  0.132
tot  0.075  0.129  0.120  0.324
 

 k-point    9 :   -0.16666667 0.16666667 0.00000000     weight = 0.05555556

band   1 # energy  -13.89681091 # occ.  2.00000000
 
ion      s      p      d    tot
  1  0.000  0.000  0.974  0.974
  2  0.009  0.001  0.000  0.011
tot  0.010  0.002  0.974  0.985
 
band   2 # energy  -13.85301053 # occ.  2.00000000
 
ion      s      p      d    tot
  1  0.000  0.000  0.987  0.987
  2  0.000  0.003  0.000  0.003
tot  0.000  0.003  0.987  0.989
 
band   3 # energy  -13.84967626 # occ.  2.00000000
 
ion      s      p      d    tot
  1  0.000  0.000  0.987  0.987
  2  0.000  0.002  0.000  0.003
tot  0.000  0.002  0.987  0.990
 
band   4 # energy  -13.78695657 # occ.  2.00000000
 
ion      s      p      d    tot
  1  0.000  0.000  0.990  0.990
  2  0.000  0.000  0.000  0.000
tot  0.000  0.000  0.991  0.991
 
band   5 # energy  -13.78268136 # occ.  2.00000000
 
ion      s      p      d    tot
  1  0.000  0.000  0.991  0.991
  2  0.000  0.000  0.000  0.000
tot  0.000  0.000  0.991  0.991
 
band   6 # energy   -9.57369277 # occ.  2.00000000
 
ion      s      p      d    tot
  1  0.144  0.013  0.015  0.172
  2  0.452  0.006  0.000  0.458
tot  0.596  0.019  0.015  0.630
 
band   7 # energy   -0.84595591 # occ.  2.00000000
 
ion      s      p      d    tot
  1  0.217  0.065  0.024  0.307
  2  0.128  0.194  0.005  0.327
tot  0.345  0.259  0.029  0.633
 
band   8 # energy    1.29153134 # occ.  2.00000000
 
ion      s      p      d    tot
  1  0.022  0.157  0.023  0.203
  2  0.002  0.304  0.007  0.314
tot  0.025  0.461  0.030  0.516
 
band   9 # energy    2.94597678 # occ.  2.00000000
 
ion      s      p      d    tot
  1  0.000  0.146  0.043  0.189
  2  0.000  0.418  0.006  0.424
tot  0.000  0.564  0.049  0.613
 
band  10 # energy    6.97075371 # occ.  0.00000000
 
ion      s      p      d    tot
  1  0.242  0.107  0.012  0.361
  2  0.125  0.142  0.020  0.288
tot  0.367  0.249  0.032  0.649
 
band  11 # energy    8.79329938 # occ.  0.00000000
 
ion      s      p      d    tot
  1  0.042  0.197  0.040  0.279
  2  0.040  0.112  0.053  0.205
tot  0.083  0.309  0.093  0.485
 
band  12 # energy    8.96914937 # occ.  0.00000000
 
ion      s      p      d    tot
  1  0.000  0.346  0.023  0.369
  2  0.000  0.074  0.066  0.140
tot  0.000  0.420  0.088  0.509
 
band  13 # energy   10.05965907 # occ.  0.00000000
 
ion      s      p      d    tot
  1  0.023  0.150  0.037  0.210
  2  0.020  0.165  0.048  0.233
tot  0.043  0.315  0.085  0.443
 
band  14 # energy   12.37497215 # occ.  0.00000000
 
ion      s      p      d    tot
  1  0.000  0.002  0.127  0.129
  2  0.000  0.001  0.120  0.122
tot  0.000  0.004  0.247  0.251
 
band  15 # energy   14.44050167 # occ.  0.00000000
 
ion      s      p      d    tot
  1  0.001  0.133  0.075  0.209
  2  0.025  0.086  0.046  0.157
tot  0.026  0.219  0.121  0.366
 
band  16 # energy   15.27195741 # occ.  0.00000000
 
ion      s      p      d    tot
  1  0.125  0.178  0.006  0.309
  2  0.001  0.042  0.047  0.089
tot  0.126  0.220  0.053  0.398
 

 k-point   10 :    0.33333333 0.33333333 0.00000000     weight = 0.02777778

band   1 # energy  -13.92924917 # occ.  2.00000000
 
ion      s      p      d    tot
  1  0.000  0.000  0.968  0.969
  2  0.014  0.001  0.000  0.015
tot  0.014  0.001  0.968  0.983
 
band   2 # energy  -13.83173692 # occ.  2.00000000
 
ion      s      p      d    tot
  1  0.000  0.000  0.989  0.989
  2  0.000  0.002  0.000  0.002
tot  0.000  0.002  0.989  0.991
 
band   3 # energy  -13.83173675 # occ.  2.00000000
 
ion      s      p      d    tot
  1  0.000  0.000  0.989  0.989
  2  0.000  0.002  0.000  0.002
tot  0.000  0.002  0.989  0.991
 
band   4 # energy  -13.79996905 # occ.  2.00000000
 
ion      s      p      d    tot
  1  0.000  0.000  0.988  0.988
  2  0.000  0.000  0.000  0.001
tot  0.000  0.000  0.989  0.989
 
band   5 # energy  -13.77603120 # occ.  2.00000000
 
ion      s      p      d    tot
  1  0.000  0.000  0.992  0.992
  2  0.000  0.000  0.000  0.000
tot  0.000  0.000  0.992  0.992
 
band   6 # energy   -8.75882946 # occ.  2.00000000
 
ion      s      p      d    tot
  1  0.101  0.029  0.023  0.153
  2  0.490  0.008  0.000  0.498
tot  0.591  0.037  0.023  0.652
 
band   7 # energy   -2.22564526 # occ.  2.00000000
 
ion      s      p      d    tot
  1  0.317  0.029  0.020  0.366
  2  0.115  0.165  0.005  0.285
tot  0.432  0.194  0.026  0.651
 
band   8 # energy    1.10383624 # occ.  2.00000000
 
ion      s      p      d    tot
  1  0.000  0.184  0.015  0.198
  2  0.000  0.328  0.003  0.332
tot  0.000  0.512  0.018  0.530
 
band   9 # energy    1.10383950 # occ.  2.00000000
 
ion      s      p      d    tot
  1  0.000  0.184  0.015  0.198
  2  0.000  0.328  0.003  0.332
tot  0.000  0.512  0.018  0.530
 
band  10 # energy    5.72984520 # occ.  0.00000000
 
ion      s      p      d    tot
  1  0.110  0.122  0.034  0.266
  2  0.027  0.040  0.045  0.112
tot  0.137  0.163  0.078  0.377
 
band  11 # energy    6.88386082 # occ.  0.00000000
 
ion      s      p      d    tot
  1  0.108  0.059  0.047  0.213
  2  0.050  0.087  0.039  0.175
tot  0.158  0.145  0.085  0.389
 
band  12 # energy   12.65031865 # occ.  0.00000000
 
ion      s      p      d    tot
  1  0.000  0.303  0.046  0.349
  2  0.000  0.190  0.074  0.264
tot  0.000  0.494  0.120  0.613
 
band  13 # energy   12.65032702 # occ.  0.00000000
 
ion      s      p      d    tot
  1  0.000  0.303  0.046  0.349
  2  0.000  0.190  0.074  0.264
tot  0.000  0.493  0.120  0.613
 
band  14 # energy   13.25699103 # occ.  0.00000000
 
ion      s      p      d    tot
  1  0.095  0.043  0.043  0.181
  2  0.083  0.232  0.031  0.347
tot  0.178  0.275  0.074  0.527
 
band  15 # energy   16.46104127 # occ.  0.00000000
 
ion      s      p      d    tot
  1  0.000  0.000  0.126  0.126
  2  0.000  0.000  0.219  0.219
tot  0.000  0.000  0.345  0.345
 