 vasp.5.4.1 24Jun15 (build Nov 25 2015 16:39:35) complex                        
  
 executed on         CrayXC-Intel date 2016.11.02  17:35:39
 running on   96 total cores
 distrk:  each k-point on   24 cores,    4 groups
 distr:  one band on NCORES_PER_BAND=   1 cores,   24 groups


--------------------------------------------------------------------------------------------------------


 INCAR:
 POTCAR:    PAW_PBE Cd 06Sep2000                  
 POTCAR:    PAW_PBE Te 08Apr2002                  

 ----------------------------------------------------------------------------- 
|                                                                             |
|           W    W    AA    RRRRR   N    N  II  N    N   GGGG   !!!           |
|           W    W   A  A   R    R  NN   N  II  NN   N  G    G  !!!           |
|           W    W  A    A  R    R  N N  N  II  N N  N  G       !!!           |
|           W WW W  AAAAAA  RRRRR   N  N N  II  N  N N  G  GGG   !            |
|           WW  WW  A    A  R   R   N   NN  II  N   NN  G    G                |
|           W    W  A    A  R    R  N    N  II  N    N   GGGG   !!!           |
|                                                                             |
|      For optimal performance we recommend to set                            |
|        NCORE= 4 - approx SQRT( number of cores)                             |
|      NCORE specifies how many cores store one orbital (NPAR=cpu/NCORE).     |
|      This setting can  greatly improve the performance of VASP for DFT.     |
|      The default, NPAR=number of cores might be grossly inefficient         |
|      on modern multi-core architectures or massively parallel machines.     |
|      Do your own testing !!!!                                               |
|      Unfortunately you need to use the default for GW and RPA calculations. |
|      (for HF NCORE is supported but not extensively tested yet)             |
|                                                                             |
 ----------------------------------------------------------------------------- 


 ----------------------------------------------------------------------------- 
|                                                                             |
|           W    W    AA    RRRRR   N    N  II  N    N   GGGG   !!!           |
|           W    W   A  A   R    R  NN   N  II  NN   N  G    G  !!!           |
|           W    W  A    A  R    R  N N  N  II  N N  N  G       !!!           |
|           W WW W  AAAAAA  RRRRR   N  N N  II  N  N N  G  GGG   !            |
|           WW  WW  A    A  R   R   N   NN  II  N   NN  G    G                |
|           W    W  A    A  R    R  N    N  II  N    N   GGGG   !!!           |
|                                                                             |
|      You have enabled k-point parallelism (KPAR>1).                         |
|      This developmental code was originally  written by Paul Kent at ORNL,  |
|      and carefully double checked in Vienna.                                |
|      GW as well as linear response parallelism added by Martijn Marsman     |
|      and Georg Kresse.                                                      |
|      Carefully verify results versus KPAR=1.                                |
|      Report problems to Paul Kent and Vienna.                               |
|                                                                             |
 ----------------------------------------------------------------------------- 

 POTCAR:    PAW_PBE Cd 06Sep2000                  
   VRHFIN =Cd : s2 d10                                                          
   LEXCH  = PE                                                                  
   EATOM  =  1293.1815 eV,   95.0462 Ry                                         
                                                                                
   TITEL  = PAW_PBE Cd 06Sep2000                                                
   LULTRA =        F    use ultrasoft PP ?                                      
   IUNSCR =        1    unscreen: 0-lin 1-nonlin 2-no                           
   RPACOR =    2.000    partial core radius                                     
   POMASS =  112.411; ZVAL   =   12.000    mass and valenz                      
   RCORE  =    2.300    outmost cutoff radius                                   
   RWIGS  =    2.980; RWIGS  =    1.577    wigner-seitz radius (au A)           
   ENMAX  =  274.336; ENMIN  =  205.752 eV                                      
   RCLOC  =    2.054    cutoff for local pot                                    
   LCOR   =        T    correct aug charges                                     
   LPAW   =        T    paw PP                                                  
   EAUG   =  456.106                                                            
   DEXC   =    0.000                                                            
   RMAX   =    2.358    core radius for proj-oper                               
   RAUG   =    1.300    factor for augmentation sphere                          
   RDEP   =    2.450    radius for radial grids                                 
   RDEPT  =    1.955    core radius for aug-charge                              
                                                                                
   Atomic configuration                                                         
   12 entries                                                                   
     n  l   j            E        occ.                                          
     1  0  0.50    -26519.7817   2.0000                                         
     2  0  0.50     -3936.9612   2.0000                                         
     2  1  1.50     -3532.2230   6.0000                                         
     3  0  0.50      -733.7908   2.0000                                         
     3  1  1.50      -601.0792   6.0000                                         
     3  2  2.50      -393.5307  10.0000                                         
     4  0  0.50      -105.8977   2.0000                                         
     4  1  1.50       -66.9488   6.0000                                         
     4  2  2.50       -11.7331  10.0000                                         
     5  0  0.50        -5.6592   2.0000                                         
     5  1  0.50        -1.3606   0.0000                                         
     4  3  2.50        -1.3606   0.0000                                         
   Description                                                                  
     l       E           TYP  RCUT    TYP  RCUT                                 
     2    -11.7331479     23  2.300                                             
     2    -13.0937305     23  2.300                                             
     0     -5.6591502     23  2.300                                             
     0     -1.5561433     23  2.300                                             
     1     -2.7211652     23  2.300                                             
     1      8.3548275     23  2.300                                             
  local pseudopotential read in
  partial core-charges read in
  partial kinetic energy density read in
  atomic valenz-charges read in
  non local Contribution for L=           2  read in
    real space projection operators read in
  non local Contribution for L=           2  read in
    real space projection operators read in
  non local Contribution for L=           0  read in
    real space projection operators read in
  non local Contribution for L=           0  read in
    real space projection operators read in
  non local Contribution for L=           1  read in
    real space projection operators read in
  non local Contribution for L=           1  read in
    real space projection operators read in
    PAW grid and wavefunctions read in
 
   number of l-projection  operators is LMAX  =           6
   number of lm-projection operators is LMMAX =          18
 
 POTCAR:    PAW_PBE Te 08Apr2002                  
   VRHFIN =Te: s2p4                                                             
   LEXCH  = PE                                                                  
   EATOM  =   223.2721 eV,   16.4100 Ry                                         
                                                                                
   TITEL  = PAW_PBE Te 08Apr2002                                                
   LULTRA =        F    use ultrasoft PP ?                                      
   IUNSCR =        1    unscreen: 0-lin 1-nonlin 2-no                           
   RPACOR =    2.200    partial core radius                                     
   POMASS =  127.600; ZVAL   =    6.000    mass and valenz                      
   RCORE  =    2.300    outmost cutoff radius                                   
   RWIGS  =    2.900; RWIGS  =    1.535    wigner-seitz radius (au A)           
   ENMAX  =  174.982; ENMIN  =  131.236 eV                                      
   ICORE  =        3    local potential                                         
   LCOR   =        T    correct aug charges                                     
   LPAW   =        T    paw PP                                                  
   EAUG   =  368.792                                                            
   DEXC   =    0.000                                                            
   RMAX   =    2.345    core radius for proj-oper                               
   RAUG   =    1.300    factor for augmentation sphere                          
   RDEP   =    2.397    radius for radial grids                                 
   RDEPT  =    2.174    core radius for aug-charge                              
                                                                                
   Atomic configuration                                                         
   13 entries                                                                   
     n  l   j            E        occ.                                          
     1  0  0.50    -31621.2075   2.0000                                         
     2  0  0.50     -4848.7941   2.0000                                         
     2  1  1.50     -4352.1960   6.0000                                         
     3  0  0.50      -964.9612   2.0000                                         
     3  1  1.50      -803.6179   6.0000                                         
     3  2  2.50      -559.8710  10.0000                                         
     4  0  0.50      -164.3522   2.0000                                         
     4  1  1.50      -114.3756   6.0000                                         
     4  2  2.50       -41.6483  10.0000                                         
     5  0  0.50       -15.1072   2.0000                                         
     5  1  0.50        -5.9526   4.0000                                         
     5  2  1.50        -5.4423   0.0000                                         
     4  3  2.50        -5.4423   0.0000                                         
   Description                                                                  
     l       E           TYP  RCUT    TYP  RCUT                                 
     0    -15.1072389     23  2.300                                             
     0    -16.4678215     23  2.300                                             
     1     -5.9526306     23  2.300                                             
     1     -2.4873968     23  2.300                                             
     2     -5.4423304     23  2.300                                             
     3     -1.3605826     23  2.300                                             
  local pseudopotential read in
  partial core-charges read in
  partial kinetic energy density read in
  atomic valenz-charges read in
  non local Contribution for L=           0  read in
    real space projection operators read in
  non local Contribution for L=           0  read in
    real space projection operators read in
  non local Contribution for L=           1  read in
    real space projection operators read in
  non local Contribution for L=           1  read in
    real space projection operators read in
  non local Contribution for L=           2  read in
    real space projection operators read in
    PAW grid and wavefunctions read in
 
   number of l-projection  operators is LMAX  =           5
   number of lm-projection operators is LMMAX =          13
 
  PAW_PBE Cd 06Sep2000                  :
 energy of atom  1       EATOM=-1293.1815
 kinetic energy error for atom=    0.0063 (will be added to EATOM!!)
  PAW_PBE Te 08Apr2002                  :
 energy of atom  2       EATOM= -223.2721
 kinetic energy error for atom=    0.0007 (will be added to EATOM!!)
 
 
 POSCAR: CdTe (ICSD, 295K, Rabadanov 2001)       
  positions in direct lattice
  No initial velocities read in
 exchange correlation table for  LEXCH =        8
   RHO(1)=    0.500       N(1)  =     2000
   RHO(2)=  100.500       N(2)  =     4000
 


--------------------------------------------------------------------------------------------------------


 ion  position               nearest neighbor table
   1  0.000  0.000  0.000-   2 2.81   2 2.81   2 2.81   2 2.81
   2  0.250  0.250  0.250-   1 2.81   1 2.81   1 2.81   1 2.81
 

IMPORTANT INFORMATION: All symmetrisations will be switched off!
NOSYMM: (Re-)initialisation of all symmetry stuff for point group C_1.

 
 
 KPOINTS: Automatically generated mesh            
  k-points in reciprocal lattice
Space group operators:
 irot       det(A)        alpha          n_x          n_y          n_z        tau_x        tau_y        tau_z
    1     1.000000     0.000000     1.000000     0.000000     0.000000     0.000000     0.000000     0.000000

 ----------------------------------------------------------------------------- 
|                                                                             |
|           W    W    AA    RRRRR   N    N  II  N    N   GGGG   !!!           |
|           W    W   A  A   R    R  NN   N  II  NN   N  G    G  !!!           |
|           W    W  A    A  R    R  N N  N  II  N N  N  G       !!!           |
|           W WW W  AAAAAA  RRRRR   N  N N  II  N  N N  G  GGG   !            |
|           WW  WW  A    A  R   R   N   NN  II  N   NN  G    G                |
|           W    W  A    A  R    R  N    N  II  N    N   GGGG   !!!           |
|                                                                             |
|      Your generating k-point grid is not commensurate to the symmetry       |
|      of the lattice.  This can cause   slow convergence with respect        |
|      to k-points for HF type calculations                                   |
|      suggested SOLUTIONS:                                                   |
|       ) if not already the case, use automatic k-point generation           |
|       ) shift your grid to Gamma (G) (e.g. required for hex or fcc lattice) |
|                                                                             |
 ----------------------------------------------------------------------------- 

 
 Subroutine IBZKPT_HF returns following result:
 ==============================================
 
 Found    465 k-points in 1st BZ
 the following    465 k-points will be used (e.g. in the exchange kernel)
 Following reciprocal coordinates:   # in IRBZ
  0.000000  0.000000  0.000000    0.00462963   1 t-inv F
  0.166667  0.000000  0.000000    0.00462963   2 t-inv F
  0.333333  0.000000  0.000000    0.00462963   3 t-inv F
  0.500000  0.000000  0.000000    0.00462963   4 t-inv F
 -0.333333  0.000000  0.000000    0.00462963   5 t-inv F
 -0.166667  0.000000  0.000000    0.00462963   6 t-inv F
  0.000000  0.166667  0.000000    0.00462963   7 t-inv F
  0.166667  0.166667  0.000000    0.00462963   8 t-inv F
  0.333333  0.166667  0.000000    0.00462963   9 t-inv F
  0.500000  0.166667  0.000000    0.00462963  10 t-inv F
 -0.333333  0.166667  0.000000    0.00462963  11 t-inv F
 -0.166667  0.166667  0.000000    0.00462963  12 t-inv F
  0.000000  0.333333  0.000000    0.00462963  13 t-inv F
  0.166667  0.333333  0.000000    0.00462963  14 t-inv F
  0.333333  0.333333  0.000000    0.00462963  15 t-inv F
  0.500000  0.333333  0.000000    0.00462963  16 t-inv F
 -0.333333  0.333333  0.000000    0.00462963  17 t-inv F
 -0.166667  0.333333  0.000000    0.00462963  18 t-inv F
  0.000000  0.500000  0.000000    0.00462963  19 t-inv F
  0.166667  0.500000  0.000000    0.00462963  20 t-inv F
  0.333333  0.500000  0.000000    0.00462963  21 t-inv F
  0.500000  0.500000  0.000000    0.00462963  22 t-inv F
 -0.333333  0.500000  0.000000    0.00462963  23 t-inv F
 -0.166667  0.500000  0.000000    0.00462963  24 t-inv F
  0.000000 -0.333333  0.000000    0.00462963  25 t-inv F
  0.166667 -0.333333  0.000000    0.00462963  26 t-inv F
  0.333333 -0.333333  0.000000    0.00462963  27 t-inv F
  0.500000 -0.333333  0.000000    0.00462963  28 t-inv F
 -0.333333 -0.333333  0.000000    0.00462963  29 t-inv F
 -0.166667 -0.333333  0.000000    0.00462963  30 t-inv F
  0.000000 -0.166667  0.000000    0.00462963  31 t-inv F
  0.166667 -0.166667  0.000000    0.00462963  32 t-inv F
  0.333333 -0.166667  0.000000    0.00462963  33 t-inv F
  0.500000 -0.166667  0.000000    0.00462963  34 t-inv F
 -0.333333 -0.166667  0.000000    0.00462963  35 t-inv F
 -0.166667 -0.166667  0.000000    0.00462963  36 t-inv F
  0.000000  0.000000  0.166667    0.00462963  37 t-inv F
  0.166667  0.000000  0.166667    0.00462963  38 t-inv F
  0.333333  0.000000  0.166667    0.00462963  39 t-inv F
  0.500000  0.000000  0.166667    0.00462963  40 t-inv F
 -0.333333  0.000000  0.166667    0.00462963  41 t-inv F
 -0.166667  0.000000  0.166667    0.00462963  42 t-inv F
  0.000000  0.166667  0.166667    0.00462963  43 t-inv F
  0.166667  0.166667  0.166667    0.00462963  44 t-inv F
  0.333333  0.166667  0.166667    0.00462963  45 t-inv F
  0.500000  0.166667  0.166667    0.00462963  46 t-inv F
 -0.333333  0.166667  0.166667    0.00462963  47 t-inv F
 -0.166667  0.166667  0.166667    0.00462963  48 t-inv F
  0.000000  0.333333  0.166667    0.00462963  49 t-inv F
  0.166667  0.333333  0.166667    0.00462963  50 t-inv F
  0.333333  0.333333  0.166667    0.00462963  51 t-inv F
  0.500000  0.333333  0.166667    0.00462963  52 t-inv F
 -0.333333  0.333333  0.166667    0.00462963  53 t-inv F
 -0.166667  0.333333  0.166667    0.00462963  54 t-inv F
  0.000000  0.500000  0.166667    0.00462963  55 t-inv F
  0.166667  0.500000  0.166667    0.00462963  56 t-inv F
  0.333333  0.500000  0.166667    0.00462963  57 t-inv F
  0.500000  0.500000  0.166667    0.00462963  58 t-inv F
 -0.333333  0.500000  0.166667    0.00462963  59 t-inv F
 -0.166667  0.500000  0.166667    0.00462963  60 t-inv F
  0.000000 -0.333333  0.166667    0.00462963  61 t-inv F
  0.166667 -0.333333  0.166667    0.00462963  62 t-inv F
  0.333333 -0.333333  0.166667    0.00462963  63 t-inv F
  0.500000 -0.333333  0.166667    0.00462963  64 t-inv F
 -0.333333 -0.333333  0.166667    0.00462963  65 t-inv F
 -0.166667 -0.333333  0.166667    0.00462963  66 t-inv F
  0.000000 -0.166667  0.166667    0.00462963  67 t-inv F
  0.166667 -0.166667  0.166667    0.00462963  68 t-inv F
  0.333333 -0.166667  0.166667    0.00462963  69 t-inv F
  0.500000 -0.166667  0.166667    0.00462963  70 t-inv F
 -0.333333 -0.166667  0.166667    0.00462963  71 t-inv F
 -0.166667 -0.166667  0.166667    0.00462963  72 t-inv F
  0.000000  0.000000  0.333333    0.00462963  73 t-inv F
  0.166667  0.000000  0.333333    0.00462963  74 t-inv F
  0.333333  0.000000  0.333333    0.00462963  75 t-inv F
  0.500000  0.000000  0.333333    0.00462963  76 t-inv F
 -0.333333  0.000000  0.333333    0.00462963  77 t-inv F
 -0.166667  0.000000  0.333333    0.00462963  78 t-inv F
  0.000000  0.166667  0.333333    0.00462963  79 t-inv F
  0.166667  0.166667  0.333333    0.00462963  80 t-inv F
  0.333333  0.166667  0.333333    0.00462963  81 t-inv F
  0.500000  0.166667  0.333333    0.00462963  82 t-inv F
 -0.333333  0.166667  0.333333    0.00462963  83 t-inv F
 -0.166667  0.166667  0.333333    0.00462963  84 t-inv F
  0.000000  0.333333  0.333333    0.00462963  85 t-inv F
  0.166667  0.333333  0.333333    0.00462963  86 t-inv F
  0.333333  0.333333  0.333333    0.00462963  87 t-inv F
  0.500000  0.333333  0.333333    0.00462963  88 t-inv F
 -0.333333  0.333333  0.333333    0.00462963  89 t-inv F
 -0.166667  0.333333  0.333333    0.00462963  90 t-inv F
  0.000000  0.500000  0.333333    0.00462963  91 t-inv F
  0.166667  0.500000  0.333333    0.00462963  92 t-inv F
  0.333333  0.500000  0.333333    0.00462963  93 t-inv F
  0.500000  0.500000  0.333333    0.00462963  94 t-inv F
 -0.333333  0.500000  0.333333    0.00462963  95 t-inv F
 -0.166667  0.500000  0.333333    0.00462963  96 t-inv F
  0.000000 -0.333333  0.333333    0.00462963  97 t-inv F
  0.166667 -0.333333  0.333333    0.00462963  98 t-inv F
  0.333333 -0.333333  0.333333    0.00462963  99 t-inv F
  0.500000 -0.333333  0.333333    0.00462963 100 t-inv F
 -0.333333 -0.333333  0.333333    0.00462963 101 t-inv F
 -0.166667 -0.333333  0.333333    0.00462963 102 t-inv F
  0.000000 -0.166667  0.333333    0.00462963 103 t-inv F
  0.166667 -0.166667  0.333333    0.00462963 104 t-inv F
  0.333333 -0.166667  0.333333    0.00462963 105 t-inv F
  0.500000 -0.166667  0.333333    0.00462963 106 t-inv F
 -0.333333 -0.166667  0.333333    0.00462963 107 t-inv F
 -0.166667 -0.166667  0.333333    0.00462963 108 t-inv F
  0.000000  0.000000  0.500000    0.00462963 109 t-inv F
  0.166667  0.000000  0.500000    0.00462963 110 t-inv F
  0.333333  0.000000  0.500000    0.00462963 111 t-inv F
  0.500000  0.000000  0.500000    0.00462963 112 t-inv F
 -0.333333  0.000000  0.500000    0.00462963 113 t-inv F
 -0.166667  0.000000  0.500000    0.00462963 114 t-inv F
  0.000000  0.166667  0.500000    0.00462963 115 t-inv F
  0.166667  0.166667  0.500000    0.00462963 116 t-inv F
  0.333333  0.166667  0.500000    0.00462963 117 t-inv F
  0.500000  0.166667  0.500000    0.00462963 118 t-inv F
 -0.333333  0.166667  0.500000    0.00462963 119 t-inv F
 -0.166667  0.166667  0.500000    0.00462963 120 t-inv F
  0.000000  0.333333  0.500000    0.00462963 121 t-inv F
  0.166667  0.333333  0.500000    0.00462963 122 t-inv F
  0.333333  0.333333  0.500000    0.00462963 123 t-inv F
  0.500000  0.333333  0.500000    0.00462963 124 t-inv F
 -0.333333  0.333333  0.500000    0.00462963 125 t-inv F
 -0.166667  0.333333  0.500000    0.00462963 126 t-inv F
  0.000000  0.500000  0.500000    0.00462963 127 t-inv F
  0.166667  0.500000  0.500000    0.00462963 128 t-inv F
  0.333333  0.500000  0.500000    0.00462963 129 t-inv F
  0.500000  0.500000  0.500000    0.00462963 130 t-inv F
 -0.333333  0.500000  0.500000    0.00462963 131 t-inv F
 -0.166667  0.500000  0.500000    0.00462963 132 t-inv F
  0.000000 -0.333333  0.500000    0.00462963 133 t-inv F
  0.166667 -0.333333  0.500000    0.00462963 134 t-inv F
  0.333333 -0.333333  0.500000    0.00462963 135 t-inv F
  0.500000 -0.333333  0.500000    0.00462963 136 t-inv F
 -0.333333 -0.333333  0.500000    0.00462963 137 t-inv F
 -0.166667 -0.333333  0.500000    0.00462963 138 t-inv F
  0.000000 -0.166667  0.500000    0.00462963 139 t-inv F
  0.166667 -0.166667  0.500000    0.00462963 140 t-inv F
  0.333333 -0.166667  0.500000    0.00462963 141 t-inv F
  0.500000 -0.166667  0.500000    0.00462963 142 t-inv F
 -0.333333 -0.166667  0.500000    0.00462963 143 t-inv F
 -0.166667 -0.166667  0.500000    0.00462963 144 t-inv F
  0.000000  0.000000 -0.333333    0.00462963 145 t-inv F
  0.166667  0.000000 -0.333333    0.00462963 146 t-inv F
  0.333333  0.000000 -0.333333    0.00462963 147 t-inv F
  0.500000  0.000000 -0.333333    0.00462963 148 t-inv F
 -0.333333  0.000000 -0.333333    0.00462963 149 t-inv F
 -0.166667  0.000000 -0.333333    0.00462963 150 t-inv F
  0.000000  0.166667 -0.333333    0.00462963 151 t-inv F
  0.166667  0.166667 -0.333333    0.00462963 152 t-inv F
  0.333333  0.166667 -0.333333    0.00462963 153 t-inv F
  0.500000  0.166667 -0.333333    0.00462963 154 t-inv F
 -0.333333  0.166667 -0.333333    0.00462963 155 t-inv F
 -0.166667  0.166667 -0.333333    0.00462963 156 t-inv F
  0.000000  0.333333 -0.333333    0.00462963 157 t-inv F
  0.166667  0.333333 -0.333333    0.00462963 158 t-inv F
  0.333333  0.333333 -0.333333    0.00462963 159 t-inv F
  0.500000  0.333333 -0.333333    0.00462963 160 t-inv F
 -0.333333  0.333333 -0.333333    0.00462963 161 t-inv F
 -0.166667  0.333333 -0.333333    0.00462963 162 t-inv F
  0.000000  0.500000 -0.333333    0.00462963 163 t-inv F
  0.166667  0.500000 -0.333333    0.00462963 164 t-inv F
  0.333333  0.500000 -0.333333    0.00462963 165 t-inv F
  0.500000  0.500000 -0.333333    0.00462963 166 t-inv F
 -0.333333  0.500000 -0.333333    0.00462963 167 t-inv F
 -0.166667  0.500000 -0.333333    0.00462963 168 t-inv F
  0.000000 -0.333333 -0.333333    0.00462963 169 t-inv F
  0.166667 -0.333333 -0.333333    0.00462963 170 t-inv F
  0.333333 -0.333333 -0.333333    0.00462963 171 t-inv F
  0.500000 -0.333333 -0.333333    0.00462963 172 t-inv F
 -0.333333 -0.333333 -0.333333    0.00462963 173 t-inv F
 -0.166667 -0.333333 -0.333333    0.00462963 174 t-inv F
  0.000000 -0.166667 -0.333333    0.00462963 175 t-inv F
  0.166667 -0.166667 -0.333333    0.00462963 176 t-inv F
  0.333333 -0.166667 -0.333333    0.00462963 177 t-inv F
  0.500000 -0.166667 -0.333333    0.00462963 178 t-inv F
 -0.333333 -0.166667 -0.333333    0.00462963 179 t-inv F
 -0.166667 -0.166667 -0.333333    0.00462963 180 t-inv F
  0.000000  0.000000 -0.166667    0.00462963 181 t-inv F
  0.166667  0.000000 -0.166667    0.00462963 182 t-inv F
  0.333333  0.000000 -0.166667    0.00462963 183 t-inv F
  0.500000  0.000000 -0.166667    0.00462963 184 t-inv F
 -0.333333  0.000000 -0.166667    0.00462963 185 t-inv F
 -0.166667  0.000000 -0.166667    0.00462963 186 t-inv F
  0.000000  0.166667 -0.166667    0.00462963 187 t-inv F
  0.166667  0.166667 -0.166667    0.00462963 188 t-inv F
  0.333333  0.166667 -0.166667    0.00462963 189 t-inv F
  0.500000  0.166667 -0.166667    0.00462963 190 t-inv F
 -0.333333  0.166667 -0.166667    0.00462963 191 t-inv F
 -0.166667  0.166667 -0.166667    0.00462963 192 t-inv F
  0.000000  0.333333 -0.166667    0.00462963 193 t-inv F
  0.166667  0.333333 -0.166667    0.00462963 194 t-inv F
  0.333333  0.333333 -0.166667    0.00462963 195 t-inv F
  0.500000  0.333333 -0.166667    0.00462963 196 t-inv F
 -0.333333  0.333333 -0.166667    0.00462963 197 t-inv F
 -0.166667  0.333333 -0.166667    0.00462963 198 t-inv F
  0.000000  0.500000 -0.166667    0.00462963 199 t-inv F
  0.166667  0.500000 -0.166667    0.00462963 200 t-inv F
  0.333333  0.500000 -0.166667    0.00462963 201 t-inv F
  0.500000  0.500000 -0.166667    0.00462963 202 t-inv F
 -0.333333  0.500000 -0.166667    0.00462963 203 t-inv F
 -0.166667  0.500000 -0.166667    0.00462963 204 t-inv F
  0.000000 -0.333333 -0.166667    0.00462963 205 t-inv F
  0.166667 -0.333333 -0.166667    0.00462963 206 t-inv F
  0.333333 -0.333333 -0.166667    0.00462963 207 t-inv F
  0.500000 -0.333333 -0.166667    0.00462963 208 t-inv F
 -0.333333 -0.333333 -0.166667    0.00462963 209 t-inv F
 -0.166667 -0.333333 -0.166667    0.00462963 210 t-inv F
  0.000000 -0.166667 -0.166667    0.00462963 211 t-inv F
  0.166667 -0.166667 -0.166667    0.00462963 212 t-inv F
  0.333333 -0.166667 -0.166667    0.00462963 213 t-inv F
  0.500000 -0.166667 -0.166667    0.00462963 214 t-inv F
 -0.333333 -0.166667 -0.166667    0.00462963 215 t-inv F
 -0.166667 -0.166667 -0.166667    0.00462963 216 t-inv F
  0.000000  0.000000  0.000000    0.00000000 217 t-inv F
  0.008475  0.000000  0.008475    0.00000000 218 t-inv F
  0.016949  0.000000  0.016949    0.00000000 219 t-inv F
  0.025424  0.000000  0.025424    0.00000000 220 t-inv F
  0.033898  0.000000  0.033898    0.00000000 221 t-inv F
  0.042373  0.000000  0.042373    0.00000000 222 t-inv F
  0.050847  0.000000  0.050847    0.00000000 223 t-inv F
  0.059322  0.000000  0.059322    0.00000000 224 t-inv F
  0.067797  0.000000  0.067797    0.00000000 225 t-inv F
  0.076271  0.000000  0.076271    0.00000000 226 t-inv F
  0.084746  0.000000  0.084746    0.00000000 227 t-inv F
  0.093220  0.000000  0.093220    0.00000000 228 t-inv F
  0.101695  0.000000  0.101695    0.00000000 229 t-inv F
  0.110169  0.000000  0.110169    0.00000000 230 t-inv F
  0.118644  0.000000  0.118644    0.00000000 231 t-inv F
  0.127119  0.000000  0.127119    0.00000000 232 t-inv F
  0.135593  0.000000  0.135593    0.00000000 233 t-inv F
  0.144068  0.000000  0.144068    0.00000000 234 t-inv F
  0.152542  0.000000  0.152542    0.00000000 235 t-inv F
  0.161017  0.000000  0.161017    0.00000000 236 t-inv F
  0.169492  0.000000  0.169492    0.00000000 237 t-inv F
  0.177966  0.000000  0.177966    0.00000000 238 t-inv F
  0.186441  0.000000  0.186441    0.00000000 239 t-inv F
  0.194915  0.000000  0.194915    0.00000000 240 t-inv F
  0.203390  0.000000  0.203390    0.00000000 241 t-inv F
  0.211864  0.000000  0.211864    0.00000000 242 t-inv F
  0.220339  0.000000  0.220339    0.00000000 243 t-inv F
  0.228814  0.000000  0.228814    0.00000000 244 t-inv F
  0.237288  0.000000  0.237288    0.00000000 245 t-inv F
  0.245763  0.000000  0.245763    0.00000000 246 t-inv F
  0.254237  0.000000  0.254237    0.00000000 247 t-inv F
  0.262712  0.000000  0.262712    0.00000000 248 t-inv F
  0.271186  0.000000  0.271186    0.00000000 249 t-inv F
  0.279661  0.000000  0.279661    0.00000000 250 t-inv F
  0.288136  0.000000  0.288136    0.00000000 251 t-inv F
  0.296610  0.000000  0.296610    0.00000000 252 t-inv F
  0.305085  0.000000  0.305085    0.00000000 253 t-inv F
  0.313559  0.000000  0.313559    0.00000000 254 t-inv F
  0.322034  0.000000  0.322034    0.00000000 255 t-inv F
  0.330508  0.000000  0.330508    0.00000000 256 t-inv F
  0.338983  0.000000  0.338983    0.00000000 257 t-inv F
  0.347458  0.000000  0.347458    0.00000000 258 t-inv F
  0.355932  0.000000  0.355932    0.00000000 259 t-inv F
  0.364407  0.000000  0.364407    0.00000000 260 t-inv F
  0.372881  0.000000  0.372881    0.00000000 261 t-inv F
  0.381356  0.000000  0.381356    0.00000000 262 t-inv F
  0.389831  0.000000  0.389831    0.00000000 263 t-inv F
  0.398305  0.000000  0.398305    0.00000000 264 t-inv F
  0.406780  0.000000  0.406780    0.00000000 265 t-inv F
  0.415254  0.000000  0.415254    0.00000000 266 t-inv F
  0.423729  0.000000  0.423729    0.00000000 267 t-inv F
  0.432203  0.000000  0.432203    0.00000000 268 t-inv F
  0.440678  0.000000  0.440678    0.00000000 269 t-inv F
  0.449153  0.000000  0.449153    0.00000000 270 t-inv F
  0.457627  0.000000  0.457627    0.00000000 271 t-inv F
  0.466102  0.000000  0.466102    0.00000000 272 t-inv F
  0.474576  0.000000  0.474576    0.00000000 273 t-inv F
  0.483051  0.000000  0.483051    0.00000000 274 t-inv F
  0.491525  0.000000  0.491525    0.00000000 275 t-inv F
  0.500000  0.000000  0.500000    0.00000000 276 t-inv F
  0.496795  0.009615  0.506410    0.00000000 277 t-inv F
  0.493590  0.019231  0.512821    0.00000000 278 t-inv F
  0.490385  0.028846  0.519231    0.00000000 279 t-inv F
  0.487179  0.038462  0.525641    0.00000000 280 t-inv F
  0.483974  0.048077  0.532051    0.00000000 281 t-inv F
  0.480769  0.057692  0.538462    0.00000000 282 t-inv F
  0.477564  0.067308  0.544872    0.00000000 283 t-inv F
  0.474359  0.076923  0.551282    0.00000000 284 t-inv F
  0.471154  0.086538  0.557692    0.00000000 285 t-inv F
  0.467949  0.096154  0.564103    0.00000000 286 t-inv F
  0.464744  0.105769  0.570513    0.00000000 287 t-inv F
  0.461538  0.115385  0.576923    0.00000000 288 t-inv F
  0.458333  0.125000  0.583333    0.00000000 289 t-inv F
  0.455128  0.134615  0.589744    0.00000000 290 t-inv F
  0.451923  0.144231  0.596154    0.00000000 291 t-inv F
  0.448718  0.153846  0.602564    0.00000000 292 t-inv F
  0.445513  0.163462  0.608974    0.00000000 293 t-inv F
  0.442308  0.173077  0.615385    0.00000000 294 t-inv F
  0.439103  0.182692  0.621795    0.00000000 295 t-inv F
  0.435897  0.192308  0.628205    0.00000000 296 t-inv F
  0.432692  0.201923  0.634615    0.00000000 297 t-inv F
  0.429487  0.211538  0.641026    0.00000000 298 t-inv F
  0.426282  0.221154  0.647436    0.00000000 299 t-inv F
  0.423077  0.230769  0.653846    0.00000000 300 t-inv F
  0.419872  0.240385  0.660256    0.00000000 301 t-inv F
  0.416667  0.250000  0.666667    0.00000000 302 t-inv F
  0.413462  0.259615  0.673077    0.00000000 303 t-inv F
  0.410256  0.269231  0.679487    0.00000000 304 t-inv F
  0.407051  0.278846  0.685897    0.00000000 305 t-inv F
  0.403846  0.288462  0.692308    0.00000000 306 t-inv F
  0.400641  0.298077  0.698718    0.00000000 307 t-inv F
  0.397436  0.307692  0.705128    0.00000000 308 t-inv F
  0.394231  0.317308  0.711538    0.00000000 309 t-inv F
  0.391026  0.326923  0.717949    0.00000000 310 t-inv F
  0.387821  0.336538  0.724359    0.00000000 311 t-inv F
  0.384615  0.346154  0.730769    0.00000000 312 t-inv F
  0.381410  0.355769  0.737179    0.00000000 313 t-inv F
  0.378205  0.365385  0.743590    0.00000000 314 t-inv F
  0.375000  0.375000  0.750000    0.00000000 315 t-inv F
  0.370130  0.370130  0.740260    0.00000000 316 t-inv F
  0.365260  0.365260  0.730519    0.00000000 317 t-inv F
  0.360390  0.360390  0.720779    0.00000000 318 t-inv F
  0.355519  0.355519  0.711039    0.00000000 319 t-inv F
  0.350649  0.350649  0.701299    0.00000000 320 t-inv F
  0.345779  0.345779  0.691558    0.00000000 321 t-inv F
  0.340909  0.340909  0.681818    0.00000000 322 t-inv F
  0.336039  0.336039  0.672078    0.00000000 323 t-inv F
  0.331169  0.331169  0.662338    0.00000000 324 t-inv F
  0.326299  0.326299  0.652597    0.00000000 325 t-inv F
  0.321429  0.321429  0.642857    0.00000000 326 t-inv F
  0.316558  0.316558  0.633117    0.00000000 327 t-inv F
  0.311688  0.311688  0.623377    0.00000000 328 t-inv F
  0.306818  0.306818  0.613636    0.00000000 329 t-inv F
  0.301948  0.301948  0.603896    0.00000000 330 t-inv F
  0.297078  0.297078  0.594156    0.00000000 331 t-inv F
  0.292208  0.292208  0.584416    0.00000000 332 t-inv F
  0.287338  0.287338  0.574675    0.00000000 333 t-inv F
  0.282468  0.282468  0.564935    0.00000000 334 t-inv F
  0.277597  0.277597  0.555195    0.00000000 335 t-inv F
  0.272727  0.272727  0.545455    0.00000000 336 t-inv F
  0.267857  0.267857  0.535714    0.00000000 337 t-inv F
  0.262987  0.262987  0.525974    0.00000000 338 t-inv F
  0.258117  0.258117  0.516234    0.00000000 339 t-inv F
  0.253247  0.253247  0.506494    0.00000000 340 t-inv F
  0.248377  0.248377  0.496753    0.00000000 341 t-inv F
  0.243506  0.243506  0.487013    0.00000000 342 t-inv F
  0.238636  0.238636  0.477273    0.00000000 343 t-inv F
  0.233766  0.233766  0.467532    0.00000000 344 t-inv F
  0.228896  0.228896  0.457792    0.00000000 345 t-inv F
  0.224026  0.224026  0.448052    0.00000000 346 t-inv F
  0.219156  0.219156  0.438312    0.00000000 347 t-inv F
  0.214286  0.214286  0.428571    0.00000000 348 t-inv F
  0.209416  0.209416  0.418831    0.00000000 349 t-inv F
  0.204545  0.204545  0.409091    0.00000000 350 t-inv F
  0.199675  0.199675  0.399351    0.00000000 351 t-inv F
  0.194805  0.194805  0.389610    0.00000000 352 t-inv F
  0.189935  0.189935  0.379870    0.00000000 353 t-inv F
  0.185065  0.185065  0.370130    0.00000000 354 t-inv F
  0.180195  0.180195  0.360390    0.00000000 355 t-inv F
  0.175325  0.175325  0.350649    0.00000000 356 t-inv F
  0.170455  0.170455  0.340909    0.00000000 357 t-inv F
  0.165584  0.165584  0.331169    0.00000000 358 t-inv F
  0.160714  0.160714  0.321429    0.00000000 359 t-inv F
  0.155844  0.155844  0.311688    0.00000000 360 t-inv F
  0.150974  0.150974  0.301948    0.00000000 361 t-inv F
  0.146104  0.146104  0.292208    0.00000000 362 t-inv F
  0.141234  0.141234  0.282468    0.00000000 363 t-inv F
  0.136364  0.136364  0.272727    0.00000000 364 t-inv F
  0.131494  0.131494  0.262987    0.00000000 365 t-inv F
  0.126623  0.126623  0.253247    0.00000000 366 t-inv F
  0.121753  0.121753  0.243506    0.00000000 367 t-inv F
  0.116883  0.116883  0.233766    0.00000000 368 t-inv F
  0.112013  0.112013  0.224026    0.00000000 369 t-inv F
  0.107143  0.107143  0.214286    0.00000000 370 t-inv F
  0.102273  0.102273  0.204545    0.00000000 371 t-inv F
  0.097403  0.097403  0.194805    0.00000000 372 t-inv F
  0.092532  0.092532  0.185065    0.00000000 373 t-inv F
  0.087662  0.087662  0.175325    0.00000000 374 t-inv F
  0.082792  0.082792  0.165584    0.00000000 375 t-inv F
  0.077922  0.077922  0.155844    0.00000000 376 t-inv F
  0.073052  0.073052  0.146104    0.00000000 377 t-inv F
  0.068182  0.068182  0.136364    0.00000000 378 t-inv F
  0.063312  0.063312  0.126623    0.00000000 379 t-inv F
  0.058442  0.058442  0.116883    0.00000000 380 t-inv F
  0.053571  0.053571  0.107143    0.00000000 381 t-inv F
  0.048701  0.048701  0.097403    0.00000000 382 t-inv F
  0.043831  0.043831  0.087662    0.00000000 383 t-inv F
  0.038961  0.038961  0.077922    0.00000000 384 t-inv F
  0.034091  0.034091  0.068182    0.00000000 385 t-inv F
  0.029221  0.029221  0.058442    0.00000000 386 t-inv F
  0.024351  0.024351  0.048701    0.00000000 387 t-inv F
  0.019481  0.019481  0.038961    0.00000000 388 t-inv F
  0.014610  0.014610  0.029221    0.00000000 389 t-inv F
  0.009740  0.009740  0.019481    0.00000000 390 t-inv F
  0.004870  0.004870  0.009740    0.00000000 391 t-inv F
  0.000000  0.000000  0.000000    0.00000000 392 t-inv F
  0.006849  0.006849  0.006849    0.00000000 393 t-inv F
  0.013699  0.013699  0.013699    0.00000000 394 t-inv F
  0.020548  0.020548  0.020548    0.00000000 395 t-inv F
  0.027397  0.027397  0.027397    0.00000000 396 t-inv F
  0.034247  0.034247  0.034247    0.00000000 397 t-inv F
  0.041096  0.041096  0.041096    0.00000000 398 t-inv F
  0.047945  0.047945  0.047945    0.00000000 399 t-inv F
  0.054795  0.054795  0.054795    0.00000000 400 t-inv F
  0.061644  0.061644  0.061644    0.00000000 401 t-inv F
  0.068493  0.068493  0.068493    0.00000000 402 t-inv F
  0.075342  0.075342  0.075342    0.00000000 403 t-inv F
  0.082192  0.082192  0.082192    0.00000000 404 t-inv F
  0.089041  0.089041  0.089041    0.00000000 405 t-inv F
  0.095890  0.095890  0.095890    0.00000000 406 t-inv F
  0.102740  0.102740  0.102740    0.00000000 407 t-inv F
  0.109589  0.109589  0.109589    0.00000000 408 t-inv F
  0.116438  0.116438  0.116438    0.00000000 409 t-inv F
  0.123288  0.123288  0.123288    0.00000000 410 t-inv F
  0.130137  0.130137  0.130137    0.00000000 411 t-inv F
  0.136986  0.136986  0.136986    0.00000000 412 t-inv F
  0.143836  0.143836  0.143836    0.00000000 413 t-inv F
  0.150685  0.150685  0.150685    0.00000000 414 t-inv F
  0.157534  0.157534  0.157534    0.00000000 415 t-inv F
  0.164384  0.164384  0.164384    0.00000000 416 t-inv F
  0.171233  0.171233  0.171233    0.00000000 417 t-inv F
  0.178082  0.178082  0.178082    0.00000000 418 t-inv F
  0.184931  0.184931  0.184931    0.00000000 419 t-inv F
  0.191781  0.191781  0.191781    0.00000000 420 t-inv F
  0.198630  0.198630  0.198630    0.00000000 421 t-inv F
  0.205479  0.205479  0.205479    0.00000000 422 t-inv F
  0.212329  0.212329  0.212329    0.00000000 423 t-inv F
  0.219178  0.219178  0.219178    0.00000000 424 t-inv F
  0.226027  0.226027  0.226027    0.00000000 425 t-inv F
  0.232877  0.232877  0.232877    0.00000000 426 t-inv F
  0.239726  0.239726  0.239726    0.00000000 427 t-inv F
  0.246575  0.246575  0.246575    0.00000000 428 t-inv F
  0.253425  0.253425  0.253425    0.00000000 429 t-inv F
  0.260274  0.260274  0.260274    0.00000000 430 t-inv F
  0.267123  0.267123  0.267123    0.00000000 431 t-inv F
  0.273973  0.273973  0.273973    0.00000000 432 t-inv F
  0.280822  0.280822  0.280822    0.00000000 433 t-inv F
  0.287671  0.287671  0.287671    0.00000000 434 t-inv F
  0.294521  0.294521  0.294521    0.00000000 435 t-inv F
  0.301370  0.301370  0.301370    0.00000000 436 t-inv F
  0.308219  0.308219  0.308219    0.00000000 437 t-inv F
  0.315068  0.315068  0.315068    0.00000000 438 t-inv F
  0.321918  0.321918  0.321918    0.00000000 439 t-inv F
  0.328767  0.328767  0.328767    0.00000000 440 t-inv F
  0.335616  0.335616  0.335616    0.00000000 441 t-inv F
  0.342466  0.342466  0.342466    0.00000000 442 t-inv F
  0.349315  0.349315  0.349315    0.00000000 443 t-inv F
  0.356164  0.356164  0.356164    0.00000000 444 t-inv F
  0.363014  0.363014  0.363014    0.00000000 445 t-inv F
  0.369863  0.369863  0.369863    0.00000000 446 t-inv F
  0.376712  0.376712  0.376712    0.00000000 447 t-inv F
  0.383562  0.383562  0.383562    0.00000000 448 t-inv F
  0.390411  0.390411  0.390411    0.00000000 449 t-inv F
  0.397260  0.397260  0.397260    0.00000000 450 t-inv F
  0.404110  0.404110  0.404110    0.00000000 451 t-inv F
  0.410959  0.410959  0.410959    0.00000000 452 t-inv F
  0.417808  0.417808  0.417808    0.00000000 453 t-inv F
  0.424658  0.424658  0.424658    0.00000000 454 t-inv F
  0.431507  0.431507  0.431507    0.00000000 455 t-inv F
  0.438356  0.438356  0.438356    0.00000000 456 t-inv F
  0.445205  0.445205  0.445205    0.00000000 457 t-inv F
  0.452055  0.452055  0.452055    0.00000000 458 t-inv F
  0.458904  0.458904  0.458904    0.00000000 459 t-inv F
  0.465753  0.465753  0.465753    0.00000000 460 t-inv F
  0.472603  0.472603  0.472603    0.00000000 461 t-inv F
  0.479452  0.479452  0.479452    0.00000000 462 t-inv F
  0.486301  0.486301  0.486301    0.00000000 463 t-inv F
  0.493151  0.493151  0.493151    0.00000000 464 t-inv F
  0.500000  0.500000  0.500000    0.00000000 465 t-inv F

 ----------------------------------------------------------------------------- 
|                                                                             |
|           W    W    AA    RRRRR   N    N  II  N    N   GGGG   !!!           |
|           W    W   A  A   R    R  NN   N  II  NN   N  G    G  !!!           |
|           W    W  A    A  R    R  N N  N  II  N N  N  G       !!!           |
|           W WW W  AAAAAA  RRRRR   N  N N  II  N  N N  G  GGG   !            |
|           WW  WW  A    A  R   R   N   NN  II  N   NN  G    G                |
|           W    W  A    A  R    R  N    N  II  N    N   GGGG   !!!           |
|                                                                             |
|      The number of bands has been changed from the values supplied          |
|      in the INCAR file. This is a result of running the parallel version.   |
|      The orbitals not found in the WAVECAR file will be initialized with    |
|      random numbers, which is usually adequate. For correlated              |
|      calculations, however, you should redo the groundstate calculation.    |
|      I found NBANDS    =       36  now  NBANDS  =      48                   |
|                                                                             |
 ----------------------------------------------------------------------------- 



--------------------------------------------------------------------------------------------------------




 Dimension of arrays:
   k-points           NKPTS =    465   k-points in BZ     NKDIM =    465   number of bands    NBANDS=     48
   number of dos      NEDOS =    301   number of ions     NIONS =      2
   non local maximal  LDIM  =      6   non local SUM 2l+1 LMDIM =     18
   total plane-waves  NPLWV =  46656
   max r-space proj   IRMAX =      1   max aug-charges    IRDMAX=  40037
   dimension x,y,z NGX =    36 NGY =   36 NGZ =   36
   dimension x,y,z NGXF=    72 NGYF=   72 NGZF=   72
   support grid    NGXF=    72 NGYF=   72 NGZF=   72
   ions per type =               1   1
 NGX,Y,Z   is equivalent  to a cutoff of  13.06, 13.06, 13.06 a.u.
 NGXF,Y,Z  is equivalent  to a cutoff of  26.11, 26.11, 26.11 a.u.


 I would recommend the setting:
   dimension x,y,z NGX =    33 NGY =   33 NGZ =   33
 SYSTEM =  Hybrid non self-consistent (band struct 
 POSCAR =  CdTe (ICSD, 295K, Rabadanov 2001)       

 Startparameter for this run:
   NWRITE =      2    write-flag & timer
   PREC   = accura    normal or accurate (medium, high low for compatibility)
   ISTART =      0    job   : 0-new  1-cont  2-samecut
   ICHARG =      2    charge: 1-file 2-atom 10-const
   ISPIN  =      1    spin polarized calculation?
   LNONCOLLINEAR =      T non collinear calculations
   LSORBIT =      T    spin-orbit coupling
   INIWAV =      1    electr: 0-lowe 1-rand  2-diag
   LASPH  =      F    aspherical Exc in radial PAW
   METAGGA=      F    non-selfconsistent MetaGGA calc.

 Electronic Relaxation 1
   ENCUT  =  500.0 eV  36.75 Ry    6.06 a.u.   8.36  8.36  8.36*2*pi/ulx,y,z
   ENINI  =  500.0     initial cutoff
   ENAUG  =  456.1 eV  augmentation charge cutoff
   NELM   =     60;   NELMIN=  5; NELMDL=  0     # of ELM steps 
   EDIFF  = 0.1E-05   stopping-criterion for ELM
   LREAL  =      F    real-space projection
   NLSPLINE    = F    spline interpolate recip. space projectors
   LCOMPAT=      F    compatible to vasp.4.4
   GGA_COMPAT  = T    GGA compatible to vasp.4.4-vasp.4.6
   LMAXPAW     = -100 max onsite density
   LMAXMIX     =    2 max onsite mixed and CHGCAR
   VOSKOWN=      0    Vosko Wilk Nusair interpolation
   ROPT   =    0.00000   0.00000
 Ionic relaxation
   EDIFFG = -.5E-02   stopping-criterion for IOM
   NSW    =      0    number of steps for IOM
   NBLOCK =      1;   KBLOCK =      1    inner block; outer block 
   IBRION =     -1    ionic relax: 0-MD 1-quasi-New 2-CG
   NFREE  =      0    steps in history (QN), initial steepest desc. (CG)
   ISIF   =      3    stress and relaxation
   IWAVPR =     10    prediction:  0-non 1-charg 2-wave 3-comb
   ISYM   =      0    0-nonsym 1-usesym 2-fastsym
   LCORR  =      T    Harris-Foulkes like correction to forces

   POTIM  = 0.5000    time-step for ionic-motion
   TEIN   =    0.0    initial temperature
   TEBEG  =    0.0;   TEEND  =   0.0 temperature during run
   SMASS  =  -3.00    Nose mass-parameter (am)
   estimated Nose-frequenzy (Omega)   =  0.10E-29 period in steps =****** mass=  -0.480E-27a.u.
   SCALEE = 1.0000    scale energy and forces
   NPACO  =    256;   APACO  = 16.0  distance and # of slots for P.C.
   PSTRESS=    0.0 pullay stress

  Mass of Ions in am
   POMASS = 112.41127.60
  Ionic Valenz
   ZVAL   =  12.00  6.00
  Atomic Wigner-Seitz radii
   RWIGS  =  -1.00 -1.00
  virtual crystal weights 
   VCA    =   1.00  1.00
   NELECT =      18.0000    total number of electrons
   NUPDOWN=      -1.0000    fix difference up-down

 DOS related values:
   EMIN   =  10.00;   EMAX   =-10.00  energy-range for DOS
   EFERMI =   0.00
   ISMEAR =     0;   SIGMA  =   0.01  broadening in eV -4-tet -1-fermi 0-gaus

 Electronic relaxation 2 (details)
   IALGO  =     58    algorithm
   LDIAG  =      T    sub-space diagonalisation (order eigenvalues)
   LSUBROT=      F    optimize rotation matrix (better conditioning)
   TURBO    =      0    0=normal 1=particle mesh
   IRESTART =      0    0=no restart 2=restart with 2 vectors
   NREBOOT  =      0    no. of reboots
   NMIN     =      0    reboot dimension
   EREF     =   0.00    reference energy to select bands
   IMIX   =      4    mixing-type and parameters
     AMIX     =   0.40;   BMIX     =  1.00
     AMIX_MAG =   1.60;   BMIX_MAG =  1.00
     AMIN     =   0.10
     WC   =   100.;   INIMIX=   1;  MIXPRE=   1;  MAXMIX= -45

 Intra band minimization:
   WEIMIN = 0.0000     energy-eigenvalue tresh-hold
   EBREAK =  0.52E-08  absolut break condition
   DEPER  =   0.30     relativ break condition  

   TIME   =   0.40     timestep for ELM

  volume/ion in A,a.u.               =      34.05       229.81
  Fermi-wavevector in a.u.,A,eV,Ry     =   1.050581  1.985311 15.017042  1.103721
  Thomas-Fermi vector in A             =   2.185590
 
 Write flags
   LWAVE  =      T    write WAVECAR
   LCHARG =      T    write CHGCAR
   LVTOT  =      F    write LOCPOT, total local potential
   LVHAR  =      F    write LOCPOT, Hartree potential only
   LELF   =      F    write electronic localiz. function (ELF)
   LORBIT =     10    0 simple, 1 ext, 2 COOP (PROOUT)


 Dipole corrections
   LMONO  =      F    monopole corrections only (constant potential shift)
   LDIPOL =      F    correct potential (dipole corrections)
   IDIPOL =      0    1-x, 2-y, 3-z, 4-all directions 
   EPSILON=  1.0000000 bulk dielectric constant

 Core level calculations are selected ICORELEVEL =  1
 Exchange correlation treatment:
   GGA     =    --    GGA type
   LEXCH   =     8    internal setting for exchange type
   VOSKOWN=      0    Vosko Wilk Nusair interpolation
   EXXOEP  =     0    0=HF, 1=EXX-LHF (local Hartree Fock) 2=EXX OEP
   LHFCALC =     T    Hartree Fock is set to
   LSYMGRAD=     F    symmetrize gradient (conserves proper symmetry)
   PRECFOCK=fast      Normal, Fast or Accurate (Low or Medium for compatibility)
   LRHFCALC=     F    long range Hartree Fock
   LRSCOR  =     F    long range correlation only (use DFT for short range part)
   LTHOMAS =     F    Thomas Fermi screening in HF
   LMODELHF=     F    short range full HF, long range fraction AEXX
   ENCUT4O =  -1.0   cutoff for four orbital integrals eV
   LMAXFOCK=     4    L truncation for augmentation on plane wave grid
   LMAXFOCKAE=  -1    L truncation for all-electron charge restoration on plane wave grid
   NMAXFOCKAE=   1    number of basis functions for all-electron charge restoration
   LFOCKAEDFT=     F  apply the AE augmentation even for DFT
   NKREDX  =     1    reduce k-point grid by
   NKREDY  =     1    reduce k-point grid by
   NKREDZ  =     1    reduce k-point grid by
   SHIFTRED=     F    shift reduced grid of Gamma
   HFKIDENT=     F    idential grid for each k-point
   ODDONLY =     F    use only odd q-grid points
   EVENONLY=     F    use only even q-grid points
   HFALPHA =   -1.0000 decay constant for conv. correction
   MCALPHA =    0.0000 extent of test-charge in conv. correction in multipole expansion
   AEXX    =    0.2500 exact exchange contribution
   HFSCREEN=    0.2070 screening length (either q_TF or 0.3 A-1)
   HFSCREENC=   0.2070 screening length for correlation (either q_TF or 0.3 A-1)
   HFRCUT  =    0.0000 spherical cutoff for potential kernel
   ALDAX   =    0.7500 LDA exchange part
   AGGAX   =    0.7500 GGA exchange part
   ALDAC   =    1.0000 LDA correlation
   AGGAC   =    1.0000 GGA correlation
   NBANDSGWLOW=     1    first orbital included in HF term
   ENCUTFOCK=  -1.0 apply spherical cutoff to Coloumb kernel
 Linear response parameters
   LEPSILON=     F    determine dielectric tensor
   LRPA    =     F    only Hartree local field effects (RPA)
   LNABLA  =     F    use nabla operator in PAW spheres
   LVEL    =     F    velocity operator in full k-point grid
   LINTERFAST=   F  fast interpolation
   KINTER  =     0    interpolate to denser k-point grid
   CSHIFT  =0.1000    complex shift for real part using Kramers Kronig
   OMEGAMAX=  -1.0    maximum frequency
   DEG_THRESHOLD= 0.2000000E-02 threshold for treating states as degnerate
   RTIME   =    0.100 relaxation time in fs

 Orbital magnetization related:
   ORBITALMAG=     F  switch on orbital magnetization
   LCHIMAG   =     F  perturbation theory with respect to B field
   DQ        =  0.001000  dq finite difference perturbation B field



--------------------------------------------------------------------------------------------------------


 Static calculation
 charge density and potential will be updated during run
 non collinear spin polarized calculation
 Conjugate gradient for all bands (Freysoldt, et al. PRB 79, 241103 (2009))
 preconditioned conjugated gradient                                        
 perform sub-space diagonalisation
    before iterative eigenvector-optimisation
 modified Broyden-mixing scheme, WC =      100.0
 initial mixing is a Kerker type mixing with AMIX =  0.4000 and BMIX =      1.0000
 Hartree-type preconditioning will be used
 using additional bands           39
 reciprocal scheme for non local part
 use partial core corrections
 no Harris-corrections to forces 
 use gradient corrections 
 use of overlap-Matrix (Vanderbilt PP)
 Gauss-broadening in eV      SIGMA  =   0.01


--------------------------------------------------------------------------------------------------------


  energy-cutoff  :      500.00
  volume of cell :       68.11
      direct lattice vectors                 reciprocal lattice vectors
     3.241350000  3.241350000  0.000000000     0.154256714  0.154256714  0.154256714
     3.241350000  0.000000000 -3.241350000     0.154256714 -0.154256714 -0.154256714
     0.000000000  3.241350000 -3.241350000    -0.154256714  0.154256714 -0.154256714

  length of vectors
     4.583961130  4.583961130  4.583961130     0.267180466  0.267180466  0.267180466


 
 k-points in units of 2pi/SCALE and weight: Automatically generated mesh            
   0.00000000  0.00000000  0.00000000       0.005
   0.16666667  0.16666667  0.16666667       0.005
   0.33333333  0.33333333  0.33333333       0.005
   0.50000000  0.50000000  0.50000000       0.005
  -0.33333333 -0.33333333 -0.33333333       0.005
  -0.16666667 -0.16666667 -0.16666667       0.005
   0.16666667 -0.16666667 -0.16666667       0.005
   0.33333333  0.00000000  0.00000000       0.005
   0.50000000  0.16666667  0.16666667       0.005
   0.66666667  0.33333333  0.33333333       0.005
  -0.16666667 -0.50000000 -0.50000000       0.005
   0.00000000 -0.33333333 -0.33333333       0.005
   0.33333333 -0.33333333 -0.33333333       0.005
   0.50000000 -0.16666667 -0.16666667       0.005
   0.66666667  0.00000000  0.00000000       0.005
   0.83333333  0.16666667  0.16666667       0.005
   0.00000000 -0.66666667 -0.66666667       0.005
   0.16666667 -0.50000000 -0.50000000       0.005
   0.50000000 -0.50000000 -0.50000000       0.005
   0.66666667 -0.33333333 -0.33333333       0.005
   0.83333333 -0.16666667 -0.16666667       0.005
   1.00000000  0.00000000  0.00000000       0.005
   0.16666667 -0.83333333 -0.83333333       0.005
   0.33333333 -0.66666667 -0.66666667       0.005
  -0.33333333  0.33333333  0.33333333       0.005
  -0.16666667  0.50000000  0.50000000       0.005
   0.00000000  0.66666667  0.66666667       0.005
   0.16666667  0.83333333  0.83333333       0.005
  -0.66666667  0.00000000  0.00000000       0.005
  -0.50000000  0.16666667  0.16666667       0.005
  -0.16666667  0.16666667  0.16666667       0.005
   0.00000000  0.33333333  0.33333333       0.005
   0.16666667  0.50000000  0.50000000       0.005
   0.33333333  0.66666667  0.66666667       0.005
  -0.50000000 -0.16666667 -0.16666667       0.005
  -0.33333333  0.00000000  0.00000000       0.005
  -0.16666667  0.16666667 -0.16666667       0.005
   0.00000000  0.33333333  0.00000000       0.005
   0.16666667  0.50000000  0.16666667       0.005
   0.33333333  0.66666667  0.33333333       0.005
  -0.50000000 -0.16666667 -0.50000000       0.005
  -0.33333333  0.00000000 -0.33333333       0.005
   0.00000000  0.00000000 -0.33333333       0.005
   0.16666667  0.16666667 -0.16666667       0.005
   0.33333333  0.33333333 -0.00000000       0.005
   0.50000000  0.50000000  0.16666667       0.005
  -0.33333333 -0.33333333 -0.66666667       0.005
  -0.16666667 -0.16666667 -0.50000000       0.005
   0.16666667 -0.16666667 -0.50000000       0.005
   0.33333333  0.00000000 -0.33333333       0.005
   0.50000000  0.16666667 -0.16666667       0.005
   0.66666667  0.33333333  0.00000000       0.005
  -0.16666667 -0.50000000 -0.83333333       0.005
  -0.00000000 -0.33333333 -0.66666667       0.005
   0.33333333 -0.33333333 -0.66666667       0.005
   0.50000000 -0.16666667 -0.50000000       0.005
   0.66666667  0.00000000 -0.33333333       0.005
   0.83333333  0.16666667 -0.16666667       0.005
   0.00000000 -0.66666667 -1.00000000       0.005
   0.16666667 -0.50000000 -0.83333333       0.005
  -0.50000000  0.50000000  0.16666667       0.005
  -0.33333333  0.66666667  0.33333333       0.005
  -0.16666667  0.83333333  0.50000000       0.005
   0.00000000  1.00000000  0.66666667       0.005
  -0.83333333  0.16666667 -0.16666667       0.005
  -0.66666667  0.33333333 -0.00000000       0.005
  -0.33333333  0.33333333  0.00000000       0.005
  -0.16666667  0.50000000  0.16666667       0.005
  -0.00000000  0.66666667  0.33333333       0.005
   0.16666667  0.83333333  0.50000000       0.005
  -0.66666667  0.00000000 -0.33333333       0.005
  -0.50000000  0.16666667 -0.16666667       0.005
  -0.33333333  0.33333333 -0.33333333       0.005
  -0.16666667  0.50000000 -0.16666667       0.005
   0.00000000  0.66666667  0.00000000       0.005
   0.16666667  0.83333333  0.16666667       0.005
  -0.66666667  0.00000000 -0.66666667       0.005
  -0.50000000  0.16666667 -0.50000000       0.005
  -0.16666667  0.16666667 -0.50000000       0.005
   0.00000000  0.33333333 -0.33333333       0.005
   0.16666667  0.50000000 -0.16666667       0.005
   0.33333333  0.66666667  0.00000000       0.005
  -0.50000000 -0.16666667 -0.83333333       0.005
  -0.33333333 -0.00000000 -0.66666667       0.005
   0.00000000  0.00000000 -0.66666667       0.005
   0.16666667  0.16666667 -0.50000000       0.005
   0.33333333  0.33333333 -0.33333333       0.005
   0.50000000  0.50000000 -0.16666667       0.005
  -0.33333333 -0.33333333 -1.00000000       0.005
  -0.16666667 -0.16666667 -0.83333333       0.005
   0.16666667 -0.16666667 -0.83333333       0.005
   0.33333333  0.00000000 -0.66666667       0.005
   0.50000000  0.16666667 -0.50000000       0.005
   0.66666667  0.33333333 -0.33333333       0.005
  -0.16666667 -0.50000000 -1.16666667       0.005
   0.00000000 -0.33333333 -1.00000000       0.005
  -0.66666667  0.66666667  0.00000000       0.005
  -0.50000000  0.83333333  0.16666667       0.005
  -0.33333333  1.00000000  0.33333333       0.005
  -0.16666667  1.16666667  0.50000000       0.005
  -1.00000000  0.33333333 -0.33333333       0.005
  -0.83333333  0.50000000 -0.16666667       0.005
  -0.50000000  0.50000000 -0.16666667       0.005
  -0.33333333  0.66666667  0.00000000       0.005
  -0.16666667  0.83333333  0.16666667       0.005
   0.00000000  1.00000000  0.33333333       0.005
  -0.83333333  0.16666667 -0.50000000       0.005
  -0.66666667  0.33333333 -0.33333333       0.005
  -0.50000000  0.50000000 -0.50000000       0.005
  -0.33333333  0.66666667 -0.33333333       0.005
  -0.16666667  0.83333333 -0.16666667       0.005
   0.00000000  1.00000000  0.00000000       0.005
  -0.83333333  0.16666667 -0.83333333       0.005
  -0.66666667  0.33333333 -0.66666667       0.005
  -0.33333333  0.33333333 -0.66666667       0.005
  -0.16666667  0.50000000 -0.50000000       0.005
   0.00000000  0.66666667 -0.33333333       0.005
   0.16666667  0.83333333 -0.16666667       0.005
  -0.66666667  0.00000000 -1.00000000       0.005
  -0.50000000  0.16666667 -0.83333333       0.005
  -0.16666667  0.16666667 -0.83333333       0.005
   0.00000000  0.33333333 -0.66666667       0.005
   0.16666667  0.50000000 -0.50000000       0.005
   0.33333333  0.66666667 -0.33333333       0.005
  -0.50000000 -0.16666667 -1.16666667       0.005
  -0.33333333  0.00000000 -1.00000000       0.005
   0.00000000  0.00000000 -1.00000000       0.005
   0.16666667  0.16666667 -0.83333333       0.005
   0.33333333  0.33333333 -0.66666667       0.005
   0.50000000  0.50000000 -0.50000000       0.005
  -0.33333333 -0.33333333 -1.33333333       0.005
  -0.16666667 -0.16666667 -1.16666667       0.005
  -0.83333333  0.83333333 -0.16666667       0.005
  -0.66666667  1.00000000  0.00000000       0.005
  -0.50000000  1.16666667  0.16666667       0.005
  -0.33333333  1.33333333  0.33333333       0.005
  -1.16666667  0.50000000 -0.50000000       0.005
  -1.00000000  0.66666667 -0.33333333       0.005
  -0.66666667  0.66666667 -0.33333333       0.005
  -0.50000000  0.83333333 -0.16666667       0.005
  -0.33333333  1.00000000  0.00000000       0.005
  -0.16666667  1.16666667  0.16666667       0.005
  -1.00000000  0.33333333 -0.66666667       0.005
  -0.83333333  0.50000000 -0.50000000       0.005
   0.33333333 -0.33333333  0.33333333       0.005
   0.50000000 -0.16666667  0.50000000       0.005
   0.66666667  0.00000000  0.66666667       0.005
   0.83333333  0.16666667  0.83333333       0.005
   0.00000000 -0.66666667  0.00000000       0.005
   0.16666667 -0.50000000  0.16666667       0.005
   0.50000000 -0.50000000  0.16666667       0.005
   0.66666667 -0.33333333  0.33333333       0.005
   0.83333333 -0.16666667  0.50000000       0.005
   1.00000000  0.00000000  0.66666667       0.005
   0.16666667 -0.83333333 -0.16666667       0.005
   0.33333333 -0.66666667 -0.00000000       0.005
   0.66666667 -0.66666667  0.00000000       0.005
   0.83333333 -0.50000000  0.16666667       0.005
   1.00000000 -0.33333333  0.33333333       0.005
   1.16666667 -0.16666667  0.50000000       0.005
   0.33333333 -1.00000000 -0.33333333       0.005
   0.50000000 -0.83333333 -0.16666667       0.005
   0.83333333 -0.83333333 -0.16666667       0.005
   1.00000000 -0.66666667  0.00000000       0.005
   1.16666667 -0.50000000  0.16666667       0.005
   1.33333333 -0.33333333  0.33333333       0.005
   0.50000000 -1.16666667 -0.50000000       0.005
   0.66666667 -1.00000000 -0.33333333       0.005
   0.00000000  0.00000000  0.66666667       0.005
   0.16666667  0.16666667  0.83333333       0.005
   0.33333333  0.33333333  1.00000000       0.005
   0.50000000  0.50000000  1.16666667       0.005
  -0.33333333 -0.33333333  0.33333333       0.005
  -0.16666667 -0.16666667  0.50000000       0.005
   0.16666667 -0.16666667  0.50000000       0.005
   0.33333333  0.00000000  0.66666667       0.005
   0.50000000  0.16666667  0.83333333       0.005
   0.66666667  0.33333333  1.00000000       0.005
  -0.16666667 -0.50000000  0.16666667       0.005
  -0.00000000 -0.33333333  0.33333333       0.005
   0.16666667 -0.16666667  0.16666667       0.005
   0.33333333  0.00000000  0.33333333       0.005
   0.50000000  0.16666667  0.50000000       0.005
   0.66666667  0.33333333  0.66666667       0.005
  -0.16666667 -0.50000000 -0.16666667       0.005
   0.00000000 -0.33333333  0.00000000       0.005
   0.33333333 -0.33333333  0.00000000       0.005
   0.50000000 -0.16666667  0.16666667       0.005
   0.66666667 -0.00000000  0.33333333       0.005
   0.83333333  0.16666667  0.50000000       0.005
   0.00000000 -0.66666667 -0.33333333       0.005
   0.16666667 -0.50000000 -0.16666667       0.005
   0.50000000 -0.50000000 -0.16666667       0.005
   0.66666667 -0.33333333  0.00000000       0.005
   0.83333333 -0.16666667  0.16666667       0.005
   1.00000000  0.00000000  0.33333333       0.005
   0.16666667 -0.83333333 -0.50000000       0.005
   0.33333333 -0.66666667 -0.33333333       0.005
   0.66666667 -0.66666667 -0.33333333       0.005
   0.83333333 -0.50000000 -0.16666667       0.005
   1.00000000 -0.33333333  0.00000000       0.005
   1.16666667 -0.16666667  0.16666667       0.005
   0.33333333 -1.00000000 -0.66666667       0.005
   0.50000000 -0.83333333 -0.50000000       0.005
  -0.16666667  0.16666667  0.50000000       0.005
   0.00000000  0.33333333  0.66666667       0.005
   0.16666667  0.50000000  0.83333333       0.005
   0.33333333  0.66666667  1.00000000       0.005
  -0.50000000 -0.16666667  0.16666667       0.005
  -0.33333333 -0.00000000  0.33333333       0.005
   0.00000000  0.00000000  0.33333333       0.005
   0.16666667  0.16666667  0.50000000       0.005
   0.33333333  0.33333333  0.66666667       0.005
   0.50000000  0.50000000  0.83333333       0.005
  -0.33333333 -0.33333333  0.00000000       0.005
  -0.16666667 -0.16666667  0.16666667       0.005
   0.00000000  0.00000000  0.00000000       0.000
   0.00000000  0.01694916  0.00000000       0.000
   0.00000000  0.03389830  0.00000000       0.000
   0.00000000  0.05084746  0.00000000       0.000
   0.00000000  0.06779662  0.00000000       0.000
   0.00000000  0.08474576  0.00000000       0.000
   0.00000000  0.10169492  0.00000000       0.000
   0.00000000  0.11864406  0.00000000       0.000
   0.00000000  0.13559322  0.00000000       0.000
   0.00000000  0.15254238  0.00000000       0.000
   0.00000000  0.16949152  0.00000000       0.000
   0.00000000  0.18644068  0.00000000       0.000
   0.00000000  0.20338982  0.00000000       0.000
   0.00000000  0.22033898  0.00000000       0.000
   0.00000000  0.23728814  0.00000000       0.000
   0.00000000  0.25423730  0.00000000       0.000
   0.00000000  0.27118644  0.00000000       0.000
   0.00000000  0.28813558  0.00000000       0.000
   0.00000000  0.30508476  0.00000000       0.000
   0.00000000  0.32203388  0.00000000       0.000
   0.00000000  0.33898306  0.00000000       0.000
   0.00000000  0.35593220  0.00000000       0.000
   0.00000000  0.37288136  0.00000000       0.000
   0.00000000  0.38983050  0.00000000       0.000
   0.00000000  0.40677964  0.00000000       0.000
   0.00000000  0.42372882  0.00000000       0.000
   0.00000000  0.44067798  0.00000000       0.000
   0.00000000  0.45762712  0.00000000       0.000
   0.00000000  0.47457626  0.00000000       0.000
   0.00000000  0.49152542  0.00000000       0.000
   0.00000000  0.50847458  0.00000000       0.000
   0.00000000  0.52542376  0.00000000       0.000
   0.00000000  0.54237288  0.00000000       0.000
   0.00000000  0.55932200  0.00000000       0.000
   0.00000000  0.57627118  0.00000000       0.000
   0.00000000  0.59322036  0.00000000       0.000
   0.00000000  0.61016952  0.00000000       0.000
   0.00000000  0.62711864  0.00000000       0.000
   0.00000000  0.64406776  0.00000000       0.000
   0.00000000  0.66101694  0.00000000       0.000
   0.00000000  0.67796612  0.00000000       0.000
   0.00000000  0.69491530  0.00000000       0.000
   0.00000000  0.71186442  0.00000000       0.000
   0.00000000  0.72881358  0.00000000       0.000
   0.00000000  0.74576270  0.00000000       0.000
   0.00000000  0.76271188  0.00000000       0.000
   0.00000000  0.77966100  0.00000000       0.000
   0.00000000  0.79661018  0.00000000       0.000
   0.00000000  0.81355930  0.00000000       0.000
   0.00000000  0.83050848  0.00000000       0.000
   0.00000000  0.84745764  0.00000000       0.000
   0.00000000  0.86440676  0.00000000       0.000
   0.00000000  0.88135594  0.00000000       0.000
   0.00000000  0.89830506  0.00000000       0.000
   0.00000000  0.91525424  0.00000000       0.000
   0.00000000  0.93220342  0.00000000       0.000
   0.00000000  0.94915252  0.00000000       0.000
   0.00000000  0.96610170  0.00000000       0.000
   0.00000000  0.98305082  0.00000000       0.000
   0.00000000  1.00000000  0.00000000       0.000
   0.00000002  0.99358974 -0.01923074       0.000
  -0.00000004  0.98717950 -0.03846158       0.000
  -0.00000002  0.98076924 -0.05769232       0.000
   0.00000001  0.97435897 -0.07692307       0.000
   0.00000002  0.96794872 -0.09615382       0.000
  -0.00000004  0.96153848 -0.11538466       0.000
  -0.00000002  0.95512822 -0.13461540       0.000
   0.00000000  0.94871796 -0.15384614       0.000
   0.00000003  0.94230769 -0.17307689       0.000
   0.00000005  0.93589741 -0.19230765       0.000
  -0.00000003  0.92948719 -0.21153847       0.000
   0.00000001  0.92307691 -0.23076923       0.000
   0.00000003  0.91666665 -0.24999997       0.000
  -0.00000004  0.91025642 -0.26923080       0.000
  -0.00000002  0.90384616 -0.28846156       0.000
  -0.00000001  0.89743591 -0.30769229       0.000
   0.00000003  0.89102563 -0.32692305       0.000
  -0.00000003  0.88461539 -0.34615389       0.000
  -0.00000002  0.87820514 -0.36538462       0.000
   0.00000002  0.87179486 -0.38461538       0.000
   0.00000003  0.86538461 -0.40384611       0.000
  -0.00000004  0.85897438 -0.42307694       0.000
  -0.00000001  0.85256411 -0.44230769       0.000
   0.00000002  0.84615384 -0.46153844       0.000
   0.00000003  0.83974359 -0.48076919       0.000
   0.00000006  0.83333332 -0.49999994       0.000
   0.00000000  0.82692308 -0.51923078       0.000
   0.00000000  0.82051284 -0.53846150       0.000
   0.00000003  0.81410257 -0.55769225       0.000
  -0.00000003  0.80769231 -0.57692311       0.000
   0.00000000  0.80128204 -0.59615386       0.000
   0.00000000  0.79487180 -0.61538458       0.000
   0.00000003  0.78846153 -0.63461533       0.000
   0.00000005  0.78205127 -0.65384609       0.000
  -0.00000001  0.77564103 -0.67307693       0.000
   0.00000003  0.76923075 -0.69230769       0.000
   0.00000006  0.76282048 -0.71153844       0.000
  -0.00000003  0.75641027 -0.73076925       0.000
   0.00000000  0.75000000 -0.75000000       0.000
  -0.00000001  0.74025977 -0.74025977       0.000
   0.00000001  0.73051947 -0.73051947       0.000
   0.00000000  0.72077924 -0.72077924       0.000
  -0.00000001  0.71103895 -0.71103895       0.000
   0.00000001  0.70129871 -0.70129871       0.000
   0.00000000  0.69155842 -0.69155842       0.000
  -0.00000001  0.68181819 -0.68181819       0.000
   0.00000001  0.67207789 -0.67207789       0.000
   0.00000000  0.66233766 -0.66233766       0.000
  -0.00000001  0.65259743 -0.65259743       0.000
   0.00000001  0.64285713 -0.64285713       0.000
   0.00000000  0.63311690 -0.63311690       0.000
  -0.00000001  0.62337661 -0.62337661       0.000
   0.00000001  0.61363637 -0.61363637       0.000
   0.00000000  0.60389614 -0.60389614       0.000
  -0.00000001  0.59415585 -0.59415585       0.000
   0.00000000  0.58441556 -0.58441556       0.000
   0.00000000  0.57467532 -0.57467532       0.000
  -0.00000001  0.56493509 -0.56493509       0.000
   0.00000000  0.55519480 -0.55519480       0.000
   0.00000000  0.54545456 -0.54545456       0.000
  -0.00000001  0.53571427 -0.53571427       0.000
   0.00000000  0.52597404 -0.52597404       0.000
   0.00000000  0.51623380 -0.51623380       0.000
  -0.00000001  0.50649351 -0.50649351       0.000
  -0.00000001  0.49675325 -0.49675325       0.000
   0.00000000  0.48701298 -0.48701298       0.000
   0.00000000  0.47727272 -0.47727272       0.000
   0.00000000  0.46753246 -0.46753246       0.000
   0.00000000  0.45779222 -0.45779222       0.000
   0.00000000  0.44805196 -0.44805196       0.000
   0.00000000  0.43831170 -0.43831170       0.000
   0.00000000  0.42857140 -0.42857140       0.000
  -0.00000001  0.41883117 -0.41883117       0.000
   0.00000000  0.40909094 -0.40909094       0.000
   0.00000000  0.39935064 -0.39935064       0.000
   0.00000000  0.38961038 -0.38961038       0.000
   0.00000000  0.37987012 -0.37987012       0.000
   0.00000000  0.37012988 -0.37012988       0.000
   0.00000000  0.36038962 -0.36038962       0.000
  -0.00000001  0.35064933 -0.35064933       0.000
   0.00000001  0.34090909 -0.34090909       0.000
   0.00000000  0.33116886 -0.33116886       0.000
  -0.00000001  0.32142857 -0.32142857       0.000
   0.00000000  0.31168830 -0.31168830       0.000
   0.00000000  0.30194804 -0.30194804       0.000
  -0.00000001  0.29220781 -0.29220781       0.000
   0.00000000  0.28246754 -0.28246754       0.000
   0.00000001  0.27272725 -0.27272725       0.000
   0.00000000  0.26298702 -0.26298702       0.000
   0.00000000  0.25324678 -0.25324678       0.000
   0.00000001  0.24350649 -0.24350649       0.000
   0.00000000  0.23376620 -0.23376620       0.000
   0.00000000  0.22402596 -0.22402596       0.000
   0.00000001  0.21428573 -0.21428573       0.000
   0.00000000  0.20454544 -0.20454544       0.000
   0.00000000  0.19480520 -0.19480520       0.000
   0.00000001  0.18506491 -0.18506491       0.000
   0.00000000  0.17532468 -0.17532468       0.000
   0.00000000  0.16558444 -0.16558444       0.000
   0.00000001  0.15584415 -0.15584415       0.000
   0.00000000  0.14610392 -0.14610392       0.000
  -0.00000001  0.13636363 -0.13636363       0.000
   0.00000001  0.12662339 -0.12662339       0.000
   0.00000000  0.11688310 -0.11688310       0.000
  -0.00000001  0.10714281 -0.10714281       0.000
   0.00000001  0.09740263 -0.09740263       0.000
   0.00000000  0.08766234 -0.08766234       0.000
  -0.00000001  0.07792205 -0.07792205       0.000
   0.00000001  0.06818187 -0.06818187       0.000
   0.00000000  0.05844158 -0.05844158       0.000
  -0.00000001  0.04870129 -0.04870129       0.000
   0.00000001  0.03896099 -0.03896099       0.000
   0.00000000  0.02922076 -0.02922076       0.000
  -0.00000001  0.01948053 -0.01948053       0.000
   0.00000001  0.00974023 -0.00974023       0.000
   0.00000000  0.00000000  0.00000000       0.000
   0.00684932  0.00684932 -0.00684932       0.000
   0.01369863  0.01369863 -0.01369863       0.000
   0.02054794  0.02054794 -0.02054794       0.000
   0.02739726  0.02739726 -0.02739726       0.000
   0.03424658  0.03424658 -0.03424658       0.000
   0.04109589  0.04109589 -0.04109589       0.000
   0.04794521  0.04794521 -0.04794521       0.000
   0.05479452  0.05479452 -0.05479452       0.000
   0.06164383  0.06164383 -0.06164383       0.000
   0.06849315  0.06849315 -0.06849315       0.000
   0.07534247  0.07534247 -0.07534247       0.000
   0.08219177  0.08219177 -0.08219177       0.000
   0.08904109  0.08904109 -0.08904109       0.000
   0.09589041  0.09589041 -0.09589041       0.000
   0.10273972  0.10273972 -0.10273972       0.000
   0.10958904  0.10958904 -0.10958904       0.000
   0.11643835  0.11643835 -0.11643835       0.000
   0.12328766  0.12328766 -0.12328766       0.000
   0.13013698  0.13013698 -0.13013698       0.000
   0.13698630  0.13698630 -0.13698630       0.000
   0.14383560  0.14383560 -0.14383560       0.000
   0.15068494  0.15068494 -0.15068494       0.000
   0.15753424  0.15753424 -0.15753424       0.000
   0.16438355  0.16438355 -0.16438355       0.000
   0.17123288  0.17123288 -0.17123288       0.000
   0.17808218  0.17808218 -0.17808218       0.000
   0.18493150  0.18493150 -0.18493150       0.000
   0.19178082  0.19178082 -0.19178082       0.000
   0.19863012  0.19863012 -0.19863012       0.000
   0.20547944  0.20547944 -0.20547944       0.000
   0.21232876  0.21232876 -0.21232876       0.000
   0.21917808  0.21917808 -0.21917808       0.000
   0.22602738  0.22602738 -0.22602738       0.000
   0.23287670  0.23287670 -0.23287670       0.000
   0.23972602  0.23972602 -0.23972602       0.000
   0.24657533  0.24657533 -0.24657533       0.000
   0.25342464  0.25342464 -0.25342464       0.000
   0.26027396  0.26027396 -0.26027396       0.000
   0.26712328  0.26712328 -0.26712328       0.000
   0.27397260  0.27397260 -0.27397260       0.000
   0.28082192  0.28082192 -0.28082192       0.000
   0.28767121  0.28767121 -0.28767121       0.000
   0.29452053  0.29452053 -0.29452053       0.000
   0.30136988  0.30136988 -0.30136988       0.000
   0.30821916  0.30821916 -0.30821916       0.000
   0.31506848  0.31506848 -0.31506848       0.000
   0.32191780  0.32191780 -0.32191780       0.000
   0.32876709  0.32876709 -0.32876709       0.000
   0.33561641  0.33561641 -0.33561641       0.000
   0.34246576  0.34246576 -0.34246576       0.000
   0.34931508  0.34931508 -0.34931508       0.000
   0.35616437  0.35616437 -0.35616437       0.000
   0.36301368  0.36301368 -0.36301368       0.000
   0.36986300  0.36986300 -0.36986300       0.000
   0.37671229  0.37671229 -0.37671229       0.000
   0.38356164  0.38356164 -0.38356164       0.000
   0.39041096  0.39041096 -0.39041096       0.000
   0.39726025  0.39726025 -0.39726025       0.000
   0.40410957  0.40410957 -0.40410957       0.000
   0.41095889  0.41095889 -0.41095889       0.000
   0.41780818  0.41780818 -0.41780818       0.000
   0.42465752  0.42465752 -0.42465752       0.000
   0.43150684  0.43150684 -0.43150684       0.000
   0.43835616  0.43835616 -0.43835616       0.000
   0.44520545  0.44520545 -0.44520545       0.000
   0.45205477  0.45205477 -0.45205477       0.000
   0.45890412  0.45890412 -0.45890412       0.000
   0.46575341  0.46575341 -0.46575341       0.000
   0.47260273  0.47260273 -0.47260273       0.000
   0.47945204  0.47945204 -0.47945204       0.000
   0.48630136  0.48630136 -0.48630136       0.000
   0.49315065  0.49315065 -0.49315065       0.000
   0.50000000  0.50000000 -0.50000000       0.000
 
 k-points in reciprocal lattice and weights: Automatically generated mesh            
   0.00000000  0.00000000  0.00000000       0.005
   0.16666667  0.00000000  0.00000000       0.005
   0.33333333  0.00000000  0.00000000       0.005
   0.50000000  0.00000000  0.00000000       0.005
  -0.33333333  0.00000000  0.00000000       0.005
  -0.16666667  0.00000000  0.00000000       0.005
   0.00000000  0.16666667  0.00000000       0.005
   0.16666667  0.16666667  0.00000000       0.005
   0.33333333  0.16666667  0.00000000       0.005
   0.50000000  0.16666667  0.00000000       0.005
  -0.33333333  0.16666667  0.00000000       0.005
  -0.16666667  0.16666667  0.00000000       0.005
   0.00000000  0.33333333  0.00000000       0.005
   0.16666667  0.33333333  0.00000000       0.005
   0.33333333  0.33333333  0.00000000       0.005
   0.50000000  0.33333333  0.00000000       0.005
  -0.33333333  0.33333333  0.00000000       0.005
  -0.16666667  0.33333333  0.00000000       0.005
   0.00000000  0.50000000  0.00000000       0.005
   0.16666667  0.50000000  0.00000000       0.005
   0.33333333  0.50000000  0.00000000       0.005
   0.50000000  0.50000000  0.00000000       0.005
  -0.33333333  0.50000000  0.00000000       0.005
  -0.16666667  0.50000000  0.00000000       0.005
   0.00000000 -0.33333333  0.00000000       0.005
   0.16666667 -0.33333333  0.00000000       0.005
   0.33333333 -0.33333333  0.00000000       0.005
   0.50000000 -0.33333333  0.00000000       0.005
  -0.33333333 -0.33333333  0.00000000       0.005
  -0.16666667 -0.33333333  0.00000000       0.005
   0.00000000 -0.16666667  0.00000000       0.005
   0.16666667 -0.16666667  0.00000000       0.005
   0.33333333 -0.16666667  0.00000000       0.005
   0.50000000 -0.16666667  0.00000000       0.005
  -0.33333333 -0.16666667  0.00000000       0.005
  -0.16666667 -0.16666667  0.00000000       0.005
   0.00000000  0.00000000  0.16666667       0.005
   0.16666667  0.00000000  0.16666667       0.005
   0.33333333  0.00000000  0.16666667       0.005
   0.50000000  0.00000000  0.16666667       0.005
  -0.33333333  0.00000000  0.16666667       0.005
  -0.16666667  0.00000000  0.16666667       0.005
   0.00000000  0.16666667  0.16666667       0.005
   0.16666667  0.16666667  0.16666667       0.005
   0.33333333  0.16666667  0.16666667       0.005
   0.50000000  0.16666667  0.16666667       0.005
  -0.33333333  0.16666667  0.16666667       0.005
  -0.16666667  0.16666667  0.16666667       0.005
   0.00000000  0.33333333  0.16666667       0.005
   0.16666667  0.33333333  0.16666667       0.005
   0.33333333  0.33333333  0.16666667       0.005
   0.50000000  0.33333333  0.16666667       0.005
  -0.33333333  0.33333333  0.16666667       0.005
  -0.16666667  0.33333333  0.16666667       0.005
   0.00000000  0.50000000  0.16666667       0.005
   0.16666667  0.50000000  0.16666667       0.005
   0.33333333  0.50000000  0.16666667       0.005
   0.50000000  0.50000000  0.16666667       0.005
  -0.33333333  0.50000000  0.16666667       0.005
  -0.16666667  0.50000000  0.16666667       0.005
   0.00000000 -0.33333333  0.16666667       0.005
   0.16666667 -0.33333333  0.16666667       0.005
   0.33333333 -0.33333333  0.16666667       0.005
   0.50000000 -0.33333333  0.16666667       0.005
  -0.33333333 -0.33333333  0.16666667       0.005
[...]
 -0.000   0.000  -0.000   0.000  -0.000   0.000  -0.000  -0.000  -0.000   0.000  -0.000   0.000  -0.001   0.000  -0.000   0.000
 -0.000  -0.000  -0.000   0.000  -0.000  -0.000  -0.001  -0.000  -0.000   0.000  -0.000  -0.000  -0.000   0.000  -0.000  -0.000
 -0.001   0.000  -0.000  -0.000  -0.000  -0.000  -0.000   0.000  -0.000  -0.000  -0.001   0.000  -0.000  -0.000  -0.000  -0.000
 -0.000   0.000  -0.001   0.000   0.000   0.000  -0.000  -0.000  -0.000   0.000  -0.000   0.000  -0.001   0.000   0.000   0.000
 total augmentation occupancy for first ion, spin component:           1
  4.470   0.000   0.000   0.000  -0.000  -2.295  -0.000  -0.000  -0.000  -0.000   0.000   0.000   0.000   0.603   0.000  -0.000
  0.000   4.470   0.000   0.000  -0.000  -0.000  -2.295  -0.000  -0.000   0.000   0.000   0.000   0.000   0.000   0.603  -0.000
  0.000   0.000   2.771   0.000  -0.000  -0.000  -0.000  -0.662  -0.000  -0.000  -0.000   0.000  -0.000   0.000   0.000  -0.000
  0.000   0.000   0.000   4.470   0.000  -0.000  -0.000  -0.000  -2.295  -0.000  -0.000   0.000   0.603   0.000   0.000  -0.124
 -0.000  -0.000  -0.000   0.000   2.771  -0.000   0.000  -0.000  -0.000  -0.662   0.000  -0.000   0.000  -0.000  -0.000  -0.000
 -2.295  -0.000  -0.000  -0.000  -0.000   2.125   0.000   0.000   0.000   0.000  -0.000   0.000  -0.000  -0.580  -0.000   0.000
 -0.000  -2.295  -0.000  -0.000   0.000   0.000   2.125   0.000   0.000   0.000  -0.000   0.000  -0.000  -0.000  -0.580   0.000
 -0.000  -0.000  -0.662  -0.000  -0.000   0.000   0.000   0.555  -0.000   0.000   0.000  -0.000   0.000  -0.000  -0.000  -0.000
 -0.000  -0.000  -0.000  -2.295  -0.000   0.000   0.000  -0.000   2.125  -0.000  -0.000   0.000  -0.580  -0.000  -0.000   0.137
 -0.000   0.000  -0.000  -0.000  -0.662   0.000   0.000   0.000  -0.000   0.555  -0.000   0.000   0.000   0.000  -0.000   0.000
  0.000   0.000  -0.000  -0.000   0.000  -0.000  -0.000   0.000  -0.000  -0.000   5.689  -2.148   0.000  -0.000  -0.000  -0.000
  0.000   0.000   0.000   0.000  -0.000   0.000   0.000  -0.000   0.000   0.000  -2.148   0.826  -0.000   0.000   0.000   0.000
  0.000   0.000  -0.000   0.603   0.000  -0.000  -0.000   0.000  -0.580   0.000   0.000  -0.000   0.246   0.000   0.000  -0.059
  0.603   0.000   0.000   0.000  -0.000  -0.580  -0.000  -0.000  -0.000   0.000  -0.000   0.000   0.000   0.246   0.000  -0.000
  0.000   0.603   0.000   0.000  -0.000  -0.000  -0.580  -0.000  -0.000  -0.000  -0.000   0.000   0.000   0.000   0.246  -0.000
 -0.000  -0.000  -0.000  -0.124  -0.000   0.000   0.000  -0.000   0.137   0.000  -0.000   0.000  -0.059  -0.000  -0.000   0.016
 -0.124  -0.000  -0.000  -0.000  -0.000   0.137   0.000   0.000   0.000  -0.000   0.000  -0.000  -0.000  -0.059  -0.000   0.000
 -0.000  -0.124  -0.000  -0.000   0.000   0.000   0.137   0.000   0.000  -0.000  -0.000   0.000  -0.000  -0.000  -0.059   0.000
 total augmentation occupancy for first ion, spin component:           2
  0.000   0.000  -0.000   0.000   0.000  -0.000  -0.000   0.000  -0.000  -0.000   0.000  -0.000   0.000  -0.000   0.000  -0.000
  0.000   0.000   0.000   0.000  -0.000  -0.000  -0.000   0.000  -0.000   0.000  -0.000  -0.000  -0.000  -0.000  -0.000   0.000
 -0.000   0.000   0.000  -0.000   0.000   0.000  -0.000  -0.000  -0.000   0.000   0.000  -0.000   0.000   0.000   0.000   0.000
  0.000   0.000  -0.000   0.000   0.000  -0.000  -0.000   0.000  -0.000  -0.000   0.000  -0.000  -0.000   0.000   0.000  -0.000
  0.000  -0.000   0.000   0.000   0.000  -0.000   0.000  -0.000  -0.000  -0.000  -0.000   0.000  -0.000  -0.000  -0.000  -0.000
 -0.000  -0.000   0.000  -0.000  -0.000  -0.000   0.000  -0.000   0.000  -0.000  -0.000   0.000  -0.000   0.000  -0.000   0.000
 -0.000  -0.000  -0.000  -0.000   0.000   0.000  -0.000  -0.000   0.000   0.000   0.000   0.000  -0.000   0.000   0.000  -0.000
  0.000   0.000  -0.000   0.000  -0.000  -0.000  -0.000   0.000   0.000  -0.000  -0.000   0.000  -0.000  -0.000  -0.000  -0.000
 -0.000  -0.000  -0.000  -0.000  -0.000   0.000   0.000   0.000  -0.000  -0.000  -0.000   0.000   0.000  -0.000  -0.000   0.000
 -0.000   0.000   0.000  -0.000  -0.000  -0.000   0.000  -0.000  -0.000   0.000   0.000  -0.000   0.000   0.000   0.000   0.000
  0.000  -0.000   0.000   0.000  -0.000  -0.000   0.000  -0.000  -0.000   0.000  -0.000   0.000   0.000   0.000   0.000  -0.000
 -0.000  -0.000  -0.000  -0.000   0.000   0.000   0.000   0.000   0.000  -0.000   0.000   0.000  -0.000  -0.000  -0.000   0.000
  0.000  -0.000   0.000  -0.000  -0.000  -0.000  -0.000  -0.000   0.000   0.000   0.000  -0.000  -0.000  -0.000   0.000  -0.000
 -0.000  -0.000   0.000   0.000  -0.000   0.000   0.000  -0.000  -0.000   0.000   0.000  -0.000  -0.000  -0.000   0.000   0.000
  0.000  -0.000   0.000   0.000  -0.000  -0.000   0.000  -0.000  -0.000   0.000   0.000  -0.000   0.000   0.000  -0.000   0.000
 -0.000   0.000   0.000  -0.000  -0.000   0.000  -0.000  -0.000   0.000   0.000  -0.000   0.000  -0.000   0.000   0.000   0.000
 -0.000   0.000  -0.000  -0.000  -0.000   0.000  -0.000   0.000   0.000   0.000  -0.000   0.000   0.000  -0.000   0.000  -0.000
 -0.000  -0.000  -0.000  -0.000   0.000   0.000   0.000   0.000   0.000  -0.000  -0.000   0.000  -0.000  -0.000  -0.000   0.000
 total augmentation occupancy for first ion, spin component:           3
  0.000   0.000  -0.000   0.000  -0.000  -0.000  -0.000   0.000  -0.000   0.000   0.000  -0.000   0.000  -0.000   0.000  -0.000
  0.000   0.000  -0.000   0.000  -0.000  -0.000  -0.000   0.000  -0.000   0.000   0.000  -0.000   0.000   0.000  -0.000  -0.000
 -0.000  -0.000   0.000  -0.000  -0.000   0.000  -0.000  -0.000   0.000  -0.000   0.000  -0.000  -0.000   0.000   0.000   0.000
  0.000   0.000  -0.000   0.000   0.000  -0.000  -0.000   0.000  -0.000  -0.000  -0.000  -0.000  -0.000  -0.000  -0.000  -0.000
 -0.000  -0.000  -0.000   0.000   0.000  -0.000   0.000  -0.000  -0.000  -0.000   0.000  -0.000   0.000   0.000   0.000  -0.000
 -0.000  -0.000   0.000  -0.000  -0.000  -0.000   0.000  -0.000   0.000   0.000  -0.000   0.000  -0.000   0.000  -0.000   0.000
 -0.000  -0.000  -0.000  -0.000   0.000   0.000  -0.000   0.000   0.000   0.000  -0.000   0.000  -0.000  -0.000   0.000   0.000
  0.000   0.000  -0.000   0.000  -0.000  -0.000   0.000   0.000  -0.000   0.000  -0.000   0.000   0.000  -0.000  -0.000  -0.000
 -0.000  -0.000   0.000  -0.000  -0.000   0.000   0.000  -0.000  -0.000  -0.000   0.000   0.000   0.000   0.000   0.000   0.000
  0.000   0.000  -0.000  -0.000  -0.000   0.000   0.000   0.000  -0.000   0.000  -0.000   0.000  -0.000  -0.000  -0.000   0.000
  0.000   0.000   0.000  -0.000   0.000  -0.000  -0.000  -0.000   0.000  -0.000  -0.000   0.000  -0.000   0.000   0.000  -0.000
 -0.000  -0.000  -0.000  -0.000  -0.000   0.000   0.000   0.000   0.000   0.000   0.000   0.000  -0.000  -0.000  -0.000   0.000
  0.000   0.000  -0.000  -0.000   0.000  -0.000  -0.000   0.000   0.000  -0.000  -0.000  -0.000  -0.000   0.000   0.000  -0.000
 -0.000   0.000   0.000  -0.000   0.000   0.000  -0.000  -0.000   0.000  -0.000   0.000  -0.000   0.000  -0.000  -0.000  -0.000
  0.000  -0.000   0.000  -0.000   0.000  -0.000   0.000  -0.000   0.000  -0.000   0.000  -0.000   0.000  -0.000  -0.000  -0.000
 -0.000  -0.000   0.000  -0.000  -0.000   0.000   0.000  -0.000   0.000   0.000  -0.000   0.000  -0.000  -0.000  -0.000   0.000
 -0.000   0.000  -0.000   0.000   0.000   0.000  -0.000   0.000  -0.000  -0.000  -0.000   0.000   0.000  -0.000   0.000   0.000
  0.000  -0.000   0.000   0.000   0.000   0.000   0.000  -0.000  -0.000  -0.000  -0.000   0.000   0.000   0.000  -0.000   0.000
 total augmentation occupancy for first ion, spin component:           4
  0.000   0.000  -0.000   0.000  -0.000  -0.000  -0.000   0.000  -0.000   0.000  -0.000  -0.000  -0.000  -0.000  -0.000   0.000
  0.000   0.000   0.000   0.000   0.000  -0.000  -0.000  -0.000  -0.000  -0.000   0.000  -0.000   0.000   0.000  -0.000   0.000
 -0.000   0.000   0.000   0.000  -0.000   0.000  -0.000  -0.000  -0.000   0.000  -0.000   0.000  -0.000  -0.000  -0.000  -0.000
  0.000   0.000   0.000   0.000  -0.000  -0.000  -0.000  -0.000  -0.000   0.000   0.000  -0.000  -0.000   0.000   0.000  -0.000
 -0.000   0.000  -0.000  -0.000   0.000   0.000   0.000   0.000  -0.000  -0.000  -0.000   0.000   0.000  -0.000  -0.000   0.000
 -0.000  -0.000   0.000  -0.000   0.000  -0.000   0.000   0.000   0.000  -0.000   0.000   0.000   0.000   0.000   0.000  -0.000
 -0.000  -0.000  -0.000  -0.000   0.000   0.000  -0.000  -0.000   0.000  -0.000  -0.000   0.000  -0.000  -0.000   0.000  -0.000
  0.000  -0.000  -0.000  -0.000   0.000   0.000  -0.000   0.000  -0.000  -0.000   0.000  -0.000   0.000   0.000   0.000   0.000
 -0.000  -0.000  -0.000  -0.000  -0.000   0.000   0.000  -0.000  -0.000   0.000  -0.000   0.000   0.000  -0.000  -0.000   0.000
  0.000  -0.000   0.000   0.000  -0.000  -0.000  -0.000  -0.000   0.000   0.000   0.000  -0.000  -0.000   0.000   0.000  -0.000
 -0.000   0.000  -0.000   0.000  -0.000   0.000  -0.000   0.000  -0.000   0.000  -0.000   0.000   0.000   0.000   0.000  -0.000
 -0.000  -0.000   0.000  -0.000   0.000   0.000   0.000  -0.000   0.000  -0.000   0.000   0.000  -0.000  -0.000  -0.000   0.000
 -0.000   0.000  -0.000  -0.000   0.000   0.000  -0.000   0.000   0.000  -0.000   0.000  -0.000  -0.000   0.000   0.000  -0.000
 -0.000   0.000  -0.000   0.000  -0.000   0.000  -0.000   0.000  -0.000   0.000   0.000  -0.000   0.000  -0.000   0.000   0.000
 -0.000  -0.000  -0.000   0.000  -0.000   0.000   0.000   0.000  -0.000   0.000   0.000  -0.000   0.000   0.000  -0.000   0.000
  0.000   0.000  -0.000  -0.000   0.000  -0.000  -0.000   0.000   0.000  -0.000  -0.000   0.000  -0.000   0.000   0.000   0.000
 -0.000  -0.000   0.000  -0.000   0.000   0.000   0.000  -0.000   0.000  -0.000  -0.000   0.000  -0.000  -0.000  -0.000   0.000
  0.000  -0.000  -0.000   0.000  -0.000  -0.000   0.000   0.000  -0.000   0.000  -0.000   0.000   0.000   0.000  -0.000  -0.000


------------------------ aborting loop because EDIFF is reached ----------------------------------------


 


 total charge     
 
# of ion     s       p       d       tot
----------------------------------------
  1        0.443   0.313   9.574  10.330
  2        1.309   2.229   0.020   3.558
------------------------------------------------
tot        1.752   2.542   9.594  13.888
 


 magnetization (x)
 
# of ion     s       p       d       tot
----------------------------------------
  1       -0.000  -0.000   0.000  -0.000
  2        0.000   0.000  -0.000   0.000
------------------------------------------------
tot       -0.000   0.000   0.000   0.000
 


 magnetization (y)
 
# of ion     s       p       d       tot
----------------------------------------
  1       -0.000  -0.000   0.000  -0.000
  2        0.000   0.000  -0.000   0.000
------------------------------------------------
tot       -0.000   0.000   0.000   0.000
 


 magnetization (z)
 
# of ion     s       p       d       tot
----------------------------------------
  1       -0.000  -0.000   0.000  -0.000
  2        0.000   0.000  -0.000   0.000
------------------------------------------------
tot       -0.000   0.000   0.000   0.000
 
    FORLOC:  cpu time    0.0040: real time    0.0011
    FORHF :  cpu time 2829.7128: real time 2831.4502
    FORNL :  cpu time    0.2720: real time    0.2712
    STRESS:  cpu time    3.7882: real time    3.7918
    FORCOR:  cpu time    0.0880: real time    0.0873
    OFIELD:  cpu time    0.0000: real time    0.0009

  FORCE on cell =-STRESS in cart. coord.  units (eV):
  Direction    XX          YY          ZZ          XY          YZ          ZX
  --------------------------------------------------------------------------------------
  Alpha Z    50.17222    50.17222    50.17222
  Ewald    -348.27726  -348.27726  -348.27726     0.00000     0.00000     0.00000
  Hartree   168.79075   168.79075   168.79075    -0.00000     0.00000     0.00000
  E(xc)     -66.48166   -66.48166   -66.48166    -0.00000     0.00000     0.00000
  Local     -16.97180   -16.97181   -16.97181     0.00002    -0.00001    -0.00001
  n-local    65.72613    65.72613    65.72613    -0.00000     0.00001     0.00001
  augment    -0.17052    -0.17052    -0.17052    -0.00001     0.00001     0.00001
  Kinetic   203.20941   203.20941   203.20941    -0.00000    -0.00000    -0.00000
  Fock            NaN         NaN         NaN         NaN         NaN         NaN
  -------------------------------------------------------------------------------------
  Total           NaN         NaN         NaN         NaN         NaN         NaN
  in kB           NaN         NaN         NaN         NaN         NaN         NaN
  external pressure =         NaN kB  Pullay stress =        0.00 kB


 VOLUME and BASIS-vectors are now :
 -----------------------------------------------------------------------------
  energy-cutoff  :      500.00
  volume of cell :       68.11
      direct lattice vectors                 reciprocal lattice vectors
     3.241350000  3.241350000  0.000000000     0.154256714  0.154256714  0.154256714
     3.241350000  0.000000000 -3.241350000     0.154256714 -0.154256714 -0.154256714
     0.000000000  3.241350000 -3.241350000    -0.154256714  0.154256714 -0.154256714

  length of vectors
     4.583961130  4.583961130  4.583961130     0.267180466  0.267180466  0.267180466


 FORCES acting on ions:
    Electron-Ion                     Ewald-Force                    Non-Local-Force
 -----------------------------------------------------------------------------------------------
   -.253E-05 -.541E-05 -.222E-05   -.744E-14 -.454E-14 0.998E-14   -.104E-05 0.203E-05 0.140E-05
   -.837E-06 -.120E-05 -.977E-06   0.759E-14 0.606E-14 -.102E-13   0.262E-05 0.252E-05 -.154E-05
 -----------------------------------------------------------------------------------------------
   -.404E-05 -.736E-05 -.278E-05   0.152E-15 0.152E-14 -.238E-15   0.158E-05 0.455E-05 -.143E-06
 
 
 POSITION                                       TOTAL-FORCE (eV/Angst)
 -----------------------------------------------------------------------------------
      0.00000      0.00000      0.00000              NaN           NaN           NaN
      1.62068      1.62068     -1.62068              NaN           NaN           NaN
 -----------------------------------------------------------------------------------
    total drift:                                     NaN           NaN           NaN


--------------------------------------------------------------------------------------------------------



  FREE ENERGIE OF THE ION-ELECTRON SYSTEM (eV)
  ---------------------------------------------------
  free  energy   TOTEN  =        -6.14547923 eV

  energy  without entropy=       -6.14547923  energy(sigma->0) =       -6.14547923
 


--------------------------------------------------------------------------------------------------------


    POTLOK:  cpu time    0.2560: real time    0.2565


--------------------------------------------------------------------------------------------------------


 writing wavefunctions
     LOOP+:  cpu time20013.9148: real time20078.0810
    4ORBIT:  cpu time    0.0000: real time    0.0000

 Spin-Orbit-Coupling matrix elements

 Ion:    1  E_soc:     -0.0579408
 l=   1
     0.0000000    -0.0028629    -0.0028629
    -0.0028629     0.0000000    -0.0028628
    -0.0028629    -0.0028628     0.0000000
 l=   2
     0.0000000    -0.0013786     0.0000000    -0.0013786    -0.0054153
    -0.0013786     0.0000000    -0.0040614    -0.0013786    -0.0013538
     0.0000000    -0.0040614     0.0000000    -0.0040615     0.0000000
    -0.0013786    -0.0013786    -0.0040615     0.0000000    -0.0013538
    -0.0054153    -0.0013538     0.0000000    -0.0013538     0.0000000
 l=   3
     0.0000000     0.0000000     0.0000000     0.0000000     0.0000000     0.0000000     0.0000000
     0.0000000     0.0000000     0.0000000     0.0000000     0.0000000     0.0000000     0.0000000
     0.0000000     0.0000000     0.0000000     0.0000000     0.0000000     0.0000000     0.0000000
     0.0000000     0.0000000     0.0000000     0.0000000     0.0000000     0.0000000     0.0000000
     0.0000000     0.0000000     0.0000000     0.0000000     0.0000000     0.0000000     0.0000000
     0.0000000     0.0000000     0.0000000     0.0000000     0.0000000     0.0000000     0.0000000
     0.0000000     0.0000000     0.0000000     0.0000000     0.0000000     0.0000000     0.0000000

 Ion:    2  E_soc:     -0.1832065
 l=   1
     0.0000000    -0.0304666    -0.0304666
    -0.0304666     0.0000000    -0.0304665
    -0.0304666    -0.0304665     0.0000000
 l=   2
     0.0000000    -0.0000307     0.0000000    -0.0000307    -0.0000371
    -0.0000307     0.0000000    -0.0000278    -0.0000307    -0.0000093
     0.0000000    -0.0000278     0.0000000    -0.0000278     0.0000000
    -0.0000307    -0.0000307    -0.0000278     0.0000000    -0.0000093
    -0.0000371    -0.0000093     0.0000000    -0.0000093     0.0000000
 l=   3
     0.0000000     0.0000000     0.0000000     0.0000000     0.0000000     0.0000000     0.0000000
     0.0000000     0.0000000     0.0000000     0.0000000     0.0000000     0.0000000     0.0000000
     0.0000000     0.0000000     0.0000000     0.0000000     0.0000000     0.0000000     0.0000000
     0.0000000     0.0000000     0.0000000     0.0000000     0.0000000     0.0000000     0.0000000
     0.0000000     0.0000000     0.0000000     0.0000000     0.0000000     0.0000000     0.0000000
     0.0000000     0.0000000     0.0000000     0.0000000     0.0000000     0.0000000     0.0000000
     0.0000000     0.0000000     0.0000000     0.0000000     0.0000000     0.0000000     0.0000000
 


 total charge     
 
# of ion     s       p       d       tot
----------------------------------------
  1        0.443   0.313   9.574  10.330
  2        1.309   2.229   0.020   3.558
------------------------------------------------
tot        1.752   2.542   9.594  13.888
 


 magnetization (x)
 
# of ion     s       p       d       tot
----------------------------------------
  1       -0.000  -0.000   0.000  -0.000
  2        0.000   0.000  -0.000   0.000
------------------------------------------------
tot       -0.000   0.000   0.000   0.000
 


 magnetization (y)
 
# of ion     s       p       d       tot
----------------------------------------
  1       -0.000  -0.000   0.000  -0.000
  2        0.000   0.000  -0.000   0.000
------------------------------------------------
tot       -0.000   0.000   0.000   0.000
 


 magnetization (z)
 
# of ion     s       p       d       tot
----------------------------------------
  1       -0.000  -0.000   0.000  -0.000
  2        0.000   0.000  -0.000   0.000
------------------------------------------------
tot       -0.000   0.000   0.000   0.000
 

 total amount of memory used by VASP on root node   443642. kBytes
========================================================================

   base      :      30000. kBytes
   nonl-proj :     237898. kBytes
   fftplans  :       1425. kBytes
   grid      :       9704. kBytes
   one-center:        124. kBytes
   HF        :        129. kBytes
   nonlr-proj:       1516. kBytes
   wavefun   :     162846. kBytes
 
  
  
 General timing and accounting informations for this job:
 ========================================================
  
                  Total CPU time used (sec):    20342.771
                            User time (sec):    20243.405
                          System time (sec):       99.366
                         Elapsed time (sec):    20427.421
  
                   Maximum memory used (kb):      664300.
                   Average memory used (kb):           0.
  
                          Minor page faults:     32902638
                          Major page faults:            0
                 Voluntary context switches:         2153
