
     Program PWSCF v.7.3.1 starts on  4Feb2025 at 13:37:49 

     This program is part of the open-source Quantum ESPRESSO suite
     for quantum simulation of materials; please cite
         "P. Giannozzi et al., J. Phys.:Condens. Matter 21 395502 (2009);
         "P. Giannozzi et al., J. Phys.:Condens. Matter 29 465901 (2017);
         "P. Giannozzi et al., J. Chem. Phys. 152 154105 (2020);
          URL http://www.quantum-espresso.org", 
     in publications or presentations arising from this work. More details at
     http://www.quantum-espresso.org/quote

     Parallel version (MPI & OpenMP), running on      96 processor cores
     Number of MPI processes:                96
     Threads/MPI process:                     1

     MPI processes distributed on     2 nodes
     375103 MiB available memory on the printing compute node when the environment starts
 
     Reading input from bands-bpc_100-c_18-ecut_100-k_32.in
Warning: card &IONS ignored
Warning: card         ION_DYNAMICS = 'BFGS' ignored
Warning: card /&END ignored

     Current dimensions of program PWSCF are:
     Max number of different atomic species (ntypx) = 10
     Max number of k-points (npk) =  40000
     Max angular momentum in pseudopotentials (lmaxx) =  4

     Atomic positions and unit cell read from directory:
     ./bands-bpc_100-c_18-ecut_100-k_32.save/
     Atomic positions from file used, from input discarded
 
 
     K-points division:     npool     =       8
     R & G space division:  proc/nbgrp/npool/nimage =      12
     Subspace diagonalization in iterative solution of the eigenvalue problem:
     a serial algorithm will be used

 
     Parallelization info
     --------------------
     sticks:   dense  smooth     PW     G-vecs:    dense   smooth      PW
     Min          83      83     26                12027    12027    2206
     Max          84      84     27                12046    12046    2237
     Sum        1003    1003    313               144463   144463   26535
 
     Using Slab Decomposition
 


     bravais-lattice index     =           12
     lattice parameter (alat)  =       6.0248  a.u.
     unit-cell volume          =    1069.2648 (a.u.)^3
     number of atoms/cell      =            3
     number of atomic types    =            2
     number of electrons       =        40.00
     number of Kohn-Sham states=           80
     kinetic-energy cutoff     =     100.0000  Ry
     charge density cutoff     =     400.0000  Ry
     Exchange-correlation= PBE
                           (   1   4   3   4   0   0   0)
     Non magnetic calculation with spin-orbit


     celldm(1)=   6.024786  celldm(2)=   1.050000  celldm(3)=   5.645855
     celldm(4)=  -0.500000  celldm(5)=   0.000000  celldm(6)=   0.000000

     crystal axes: (cart. coord. in units of alat)
               a(1) = (   1.000000   0.000000   0.000000 )  
               a(2) = (  -0.500000   0.866025   0.000000 )  
               a(3) = (   0.000000   0.000000   5.645855 )  

     reciprocal axes: (cart. coord. in units 2 pi/alat)
               b(1) = (  1.000000  0.577350  0.000000 )  
               b(2) = (  0.000000  1.154701  0.000000 )  
               b(3) = (  0.000000  0.000000  0.177121 )  


     PseudoPot. # 1 for W  read from file:
     /home/dagosta/pseudopotentials/sg15/W_ONCV_PBE_fr.upf
     MD5 check sum: db67cb0d1e4258a1e3a8a357a2b3a3f2
     Pseudo is Norm-conserving, Zval = 28.0
     Generated using ONCVPSP code by D. R. Hamann
     Using radial grid of 1396 points, 14 beta functions with: 
                l(1) =   0
                l(2) =   0
                l(3) =   1
                l(4) =   1
                l(5) =   1
                l(6) =   1
                l(7) =   2
                l(8) =   2
                l(9) =   2
               l(10) =   2
               l(11) =   3
               l(12) =   3
               l(13) =   3
               l(14) =   3

     PseudoPot. # 2 for S  read from file:
     /home/dagosta/pseudopotentials/sg15/S_ONCV_PBE_fr.upf
     MD5 check sum: 5283c4e0603dd04c7219414e5521bad4
     Pseudo is Norm-conserving, Zval =  6.0
     Generated using ONCVPSP code by D. R. Hamann
     Using radial grid of 1146 points,  6 beta functions with: 
                l(1) =   0
                l(2) =   0
                l(3) =   1
                l(4) =   1
                l(5) =   1
                l(6) =   1

     atomic species   valence    mass     pseudopotential
     W                28.00   183.84000     W ( 1.00)
     S                 6.00    32.06500     S ( 1.00)

     12 Sym. Ops. (no inversion) found


                                    s                        frac. trans.

      isym =  1     identity                                     

 cryst.   s( 1) = (     1          0          0      )
                  (     0          1          0      )
                  (     0          0          1      )

 cart.    s( 1) = (  1.0000000  0.0000000  0.0000000 )
                  (  0.0000000  1.0000000  0.0000000 )
                  (  0.0000000  0.0000000  1.0000000 )


      isym =  2     180 deg rotation - cart. axis [0,1,0]        

 cryst.   s( 2) = (    -1          0          0      )
                  (     1          1          0      )
                  (     0          0         -1      )

 cart.    s( 2) = ( -1.0000000  0.0000000  0.0000000 )
                  (  0.0000000  1.0000000  0.0000000 )
                  (  0.0000000  0.0000000 -1.0000000 )


      isym =  3     120 deg rotation - cryst. axis [0,0,1]       

 cryst.   s( 3) = (     0          1          0      )
                  (    -1         -1          0      )
                  (     0          0          1      )

 cart.    s( 3) = ( -0.5000000 -0.8660254  0.0000000 )
                  (  0.8660254 -0.5000000  0.0000000 )
                  (  0.0000000  0.0000000  1.0000000 )


      isym =  4     120 deg rotation - cryst. axis [0,0,-1]      

 cryst.   s( 4) = (    -1         -1          0      )
                  (     1          0          0      )
                  (     0          0          1      )

 cart.    s( 4) = ( -0.5000000  0.8660254  0.0000000 )
                  ( -0.8660254 -0.5000000  0.0000000 )
                  (  0.0000000  0.0000000  1.0000000 )


      isym =  5     180 deg rotation - cryst. axis [1,-1,0]      

 cryst.   s( 5) = (     0         -1          0      )
                  (    -1          0          0      )
                  (     0          0         -1      )

 cart.    s( 5) = (  0.5000000 -0.8660254  0.0000000 )
                  ( -0.8660254 -0.5000000  0.0000000 )
                  (  0.0000000  0.0000000 -1.0000000 )


      isym =  6     180 deg rotation - cryst. axis [2,1,0]       

 cryst.   s( 6) = (     1          1          0      )
                  (     0         -1          0      )
                  (     0          0         -1      )

 cart.    s( 6) = (  0.5000000  0.8660254  0.0000000 )
                  (  0.8660254 -0.5000000  0.0000000 )
                  (  0.0000000  0.0000000 -1.0000000 )


      isym =  7     inv. 180 deg rotation - cart. axis [0,0,1]   

 cryst.   s( 7) = (     1          0          0      )
                  (     0          1          0      )
                  (     0          0         -1      )

 cart.    s( 7) = (  1.0000000  0.0000000  0.0000000 )
                  (  0.0000000  1.0000000  0.0000000 )
                  (  0.0000000  0.0000000 -1.0000000 )


      isym =  8     inv. 180 deg rotation - cart. axis [1,0,0]   

 cryst.   s( 8) = (    -1          0          0      )
                  (     1          1          0      )
                  (     0          0          1      )

 cart.    s( 8) = ( -1.0000000  0.0000000  0.0000000 )
                  (  0.0000000  1.0000000  0.0000000 )
                  (  0.0000000  0.0000000  1.0000000 )


      isym =  9     inv.  60 deg rotation - cryst. axis [0,0,1]  

 cryst.   s( 9) = (    -1         -1          0      )
                  (     1          0          0      )
                  (     0          0         -1      )

 cart.    s( 9) = ( -0.5000000  0.8660254  0.0000000 )
                  ( -0.8660254 -0.5000000  0.0000000 )
                  (  0.0000000  0.0000000 -1.0000000 )


      isym = 10     inv.  60 deg rotation - cryst. axis [0,0,-1] 

 cryst.   s(10) = (     0          1          0      )
                  (    -1         -1          0      )
                  (     0          0         -1      )

 cart.    s(10) = ( -0.5000000 -0.8660254  0.0000000 )
                  (  0.8660254 -0.5000000  0.0000000 )
                  (  0.0000000  0.0000000 -1.0000000 )


      isym = 11     inv. 180 deg rotation - cryst. axis [0,1,0]  

 cryst.   s(11) = (     1          1          0      )
                  (     0         -1          0      )
                  (     0          0          1      )

 cart.    s(11) = (  0.5000000  0.8660254  0.0000000 )
                  (  0.8660254 -0.5000000  0.0000000 )
                  (  0.0000000  0.0000000  1.0000000 )


      isym = 12     inv. 180 deg rotation - cryst. axis [1,1,0]  

 cryst.   s(12) = (     0         -1          0      )
                  (    -1          0          0      )
                  (     0          0          1      )

 cart.    s(12) = (  0.5000000 -0.8660254  0.0000000 )
                  ( -0.8660254 -0.5000000  0.0000000 )
                  (  0.0000000  0.0000000  1.0000000 )


     double point group D_3h (-62m)
     there are  9 classes and  3 irreducible representations
     the character table:

       E     -E    2C3   -2C3   3C2'  s_h  2S3   -2S3   3s_v
                               -3C2' -s_h'             -3s_v
G_7    2.00 -2.00  1.00 -1.00  0.00  0.00  1.73 -1.73  0.00
G_8    2.00 -2.00  1.00 -1.00  0.00  0.00 -1.73  1.73  0.00
G_9    2.00 -2.00 -2.00  2.00  0.00  0.00  0.00  0.00  0.00

     the symmetry operations in each class and the name of the first element:

     E             1
          identity                                               
     -E           -1
          identity E                                             
     2C3           3    4
          120 deg rotation - cryst. axis [0,0,1]                 
     -2C3         -3   -4
          120 deg rotation - cryst. axis [0,0,1] E               
      3C2'-3C2'    2   -6    5   -2   -5    6
          180 deg rotation - cart. axis [0,1,0]                  
      s_h -s_h'    7   -7
          inv. 180 deg rotation - cart. axis [0,0,1]             
     2S3           9   10
          inv.  60 deg rotation - cryst. axis [0,0,1]            
     -2S3         -9  -10
          inv.  60 deg rotation - cryst. axis [0,0,1] E          
      3s_v-3s_v    8   -8  -11  -12   11   12
          inv. 180 deg rotation - cart. axis [1,0,0]             

   Cartesian axes

     site n.     atom                  positions (alat units)
         1        W      tau(   1) = (  -0.0000000   0.5773503   0.0000000  )
         2        S      tau(   2) = (   0.5000000   0.2886751   0.4936007  )
         3        S      tau(   3) = (   0.5000000   0.2886751  -0.4936007  )

   Crystallographic axes

     site n.     atom                  positions (cryst. coord.)
         1        W      tau(   1) = (  0.3333333  0.6666667  0.0000000  )
         2        S      tau(   2) = (  0.6666667  0.3333333  0.0874271  )
         3        S      tau(   3) = (  0.6666667  0.3333333 -0.0874271  )

     number of k points=   501
                       cart. coord. in units 2pi/alat
        k(    1) = (   0.0000000   0.0000000   0.0000000), wk =   0.0019960
        k(    2) = (   0.0050000   0.0028868   0.0000000), wk =   0.0019960
        k(    3) = (   0.0100000   0.0057735   0.0000000), wk =   0.0019960
        k(    4) = (   0.0150000   0.0086603   0.0000000), wk =   0.0019960
        k(    5) = (   0.0200000   0.0115470   0.0000000), wk =   0.0019960
        k(    6) = (   0.0250000   0.0144338   0.0000000), wk =   0.0019960
        k(    7) = (   0.0300000   0.0173205   0.0000000), wk =   0.0019960
        k(    8) = (   0.0350000   0.0202073   0.0000000), wk =   0.0019960
        k(    9) = (   0.0400000   0.0230940   0.0000000), wk =   0.0019960
        k(   10) = (   0.0450000   0.0259808   0.0000000), wk =   0.0019960
        k(   11) = (   0.0500000   0.0288675   0.0000000), wk =   0.0019960
        k(   12) = (   0.0550000   0.0317543   0.0000000), wk =   0.0019960
        k(   13) = (   0.0600000   0.0346410   0.0000000), wk =   0.0019960
        k(   14) = (   0.0650000   0.0375278   0.0000000), wk =   0.0019960
        k(   15) = (   0.0700000   0.0404145   0.0000000), wk =   0.0019960
        k(   16) = (   0.0750000   0.0433013   0.0000000), wk =   0.0019960
        k(   17) = (   0.0800000   0.0461880   0.0000000), wk =   0.0019960
        k(   18) = (   0.0850000   0.0490748   0.0000000), wk =   0.0019960
        k(   19) = (   0.0900000   0.0519615   0.0000000), wk =   0.0019960
        k(   20) = (   0.0950000   0.0548483   0.0000000), wk =   0.0019960
        k(   21) = (   0.1000000   0.0577350   0.0000000), wk =   0.0019960
        k(   22) = (   0.1050000   0.0606218   0.0000000), wk =   0.0019960
        k(   23) = (   0.1100000   0.0635085   0.0000000), wk =   0.0019960
        k(   24) = (   0.1150000   0.0663953   0.0000000), wk =   0.0019960
        k(   25) = (   0.1200000   0.0692820   0.0000000), wk =   0.0019960
        k(   26) = (   0.1250000   0.0721688   0.0000000), wk =   0.0019960
        k(   27) = (   0.1300000   0.0750555   0.0000000), wk =   0.0019960
        k(   28) = (   0.1350000   0.0779423   0.0000000), wk =   0.0019960
        k(   29) = (   0.1400000   0.0808290   0.0000000), wk =   0.0019960
        k(   30) = (   0.1450000   0.0837158   0.0000000), wk =   0.0019960
        k(   31) = (   0.1500000   0.0866025   0.0000000), wk =   0.0019960
        k(   32) = (   0.1550000   0.0894893   0.0000000), wk =   0.0019960
        k(   33) = (   0.1600000   0.0923760   0.0000000), wk =   0.0019960
        k(   34) = (   0.1650000   0.0952628   0.0000000), wk =   0.0019960
        k(   35) = (   0.1700000   0.0981495   0.0000000), wk =   0.0019960
        k(   36) = (   0.1750000   0.1010363   0.0000000), wk =   0.0019960
        k(   37) = (   0.1800000   0.1039230   0.0000000), wk =   0.0019960
        k(   38) = (   0.1850000   0.1068098   0.0000000), wk =   0.0019960
        k(   39) = (   0.1900000   0.1096966   0.0000000), wk =   0.0019960
        k(   40) = (   0.1950000   0.1125833   0.0000000), wk =   0.0019960
        k(   41) = (   0.2000000   0.1154701   0.0000000), wk =   0.0019960
        k(   42) = (   0.2050000   0.1183568   0.0000000), wk =   0.0019960
        k(   43) = (   0.2100000   0.1212436   0.0000000), wk =   0.0019960
        k(   44) = (   0.2150000   0.1241303   0.0000000), wk =   0.0019960
        k(   45) = (   0.2200000   0.1270171   0.0000000), wk =   0.0019960
        k(   46) = (   0.2250000   0.1299038   0.0000000), wk =   0.0019960
        k(   47) = (   0.2300000   0.1327906   0.0000000), wk =   0.0019960
        k(   48) = (   0.2350000   0.1356773   0.0000000), wk =   0.0019960
        k(   49) = (   0.2400000   0.1385641   0.0000000), wk =   0.0019960
        k(   50) = (   0.2450000   0.1414508   0.0000000), wk =   0.0019960
        k(   51) = (   0.2500000   0.1443376   0.0000000), wk =   0.0019960
        k(   52) = (   0.2550000   0.1472243   0.0000000), wk =   0.0019960
        k(   53) = (   0.2600000   0.1501111   0.0000000), wk =   0.0019960
        k(   54) = (   0.2650000   0.1529978   0.0000000), wk =   0.0019960
        k(   55) = (   0.2700000   0.1558846   0.0000000), wk =   0.0019960
        k(   56) = (   0.2750000   0.1587713   0.0000000), wk =   0.0019960
        k(   57) = (   0.2800000   0.1616581   0.0000000), wk =   0.0019960
        k(   58) = (   0.2850000   0.1645448   0.0000000), wk =   0.0019960
        k(   59) = (   0.2900000   0.1674316   0.0000000), wk =   0.0019960
        k(   60) = (   0.2950000   0.1703183   0.0000000), wk =   0.0019960
        k(   61) = (   0.3000000   0.1732051   0.0000000), wk =   0.0019960
        k(   62) = (   0.3050000   0.1760918   0.0000000), wk =   0.0019960
        k(   63) = (   0.3100000   0.1789786   0.0000000), wk =   0.0019960
        k(   64) = (   0.3150000   0.1818653   0.0000000), wk =   0.0019960
        k(   65) = (   0.3200000   0.1847521   0.0000000), wk =   0.0019960
        k(   66) = (   0.3250000   0.1876388   0.0000000), wk =   0.0019960
        k(   67) = (   0.3300000   0.1905256   0.0000000), wk =   0.0019960
        k(   68) = (   0.3350000   0.1934123   0.0000000), wk =   0.0019960
        k(   69) = (   0.3400000   0.1962991   0.0000000), wk =   0.0019960
        k(   70) = (   0.3450000   0.1991858   0.0000000), wk =   0.0019960
        k(   71) = (   0.3500000   0.2020726   0.0000000), wk =   0.0019960
        k(   72) = (   0.3550000   0.2049593   0.0000000), wk =   0.0019960
        k(   73) = (   0.3600000   0.2078461   0.0000000), wk =   0.0019960
        k(   74) = (   0.3650000   0.2107328   0.0000000), wk =   0.0019960
        k(   75) = (   0.3700000   0.2136196   0.0000000), wk =   0.0019960
        k(   76) = (   0.3750000   0.2165064   0.0000000), wk =   0.0019960
        k(   77) = (   0.3800000   0.2193931   0.0000000), wk =   0.0019960
        k(   78) = (   0.3850000   0.2222799   0.0000000), wk =   0.0019960
        k(   79) = (   0.3900000   0.2251666   0.0000000), wk =   0.0019960
        k(   80) = (   0.3950000   0.2280534   0.0000000), wk =   0.0019960
        k(   81) = (   0.4000000   0.2309401   0.0000000), wk =   0.0019960
        k(   82) = (   0.4050000   0.2338269   0.0000000), wk =   0.0019960
        k(   83) = (   0.4100000   0.2367136   0.0000000), wk =   0.0019960
        k(   84) = (   0.4150000   0.2396004   0.0000000), wk =   0.0019960
        k(   85) = (   0.4200000   0.2424871   0.0000000), wk =   0.0019960
        k(   86) = (   0.4250000   0.2453739   0.0000000), wk =   0.0019960
        k(   87) = (   0.4300000   0.2482606   0.0000000), wk =   0.0019960
        k(   88) = (   0.4350000   0.2511474   0.0000000), wk =   0.0019960
        k(   89) = (   0.4400000   0.2540341   0.0000000), wk =   0.0019960
        k(   90) = (   0.4450000   0.2569209   0.0000000), wk =   0.0019960
        k(   91) = (   0.4500000   0.2598076   0.0000000), wk =   0.0019960
        k(   92) = (   0.4550000   0.2626944   0.0000000), wk =   0.0019960
        k(   93) = (   0.4600000   0.2655811   0.0000000), wk =   0.0019960
        k(   94) = (   0.4650000   0.2684679   0.0000000), wk =   0.0019960
        k(   95) = (   0.4700000   0.2713546   0.0000000), wk =   0.0019960
        k(   96) = (   0.4750000   0.2742414   0.0000000), wk =   0.0019960
        k(   97) = (   0.4800000   0.2771281   0.0000000), wk =   0.0019960
        k(   98) = (   0.4850000   0.2800149   0.0000000), wk =   0.0019960
        k(   99) = (   0.4900000   0.2829016   0.0000000), wk =   0.0019960
        k(  100) = (   0.4950000   0.2857884   0.0000000), wk =   0.0019960
        k(  101) = (   0.5000000   0.2886751   0.0000000), wk =   0.0019960
        k(  102) = (   0.4983333   0.2915619   0.0000000), wk =   0.0019960
        k(  103) = (   0.4966667   0.2944486   0.0000000), wk =   0.0019960
        k(  104) = (   0.4950000   0.2973354   0.0000000), wk =   0.0019960
        k(  105) = (   0.4933333   0.3002221   0.0000000), wk =   0.0019960
        k(  106) = (   0.4916667   0.3031089   0.0000000), wk =   0.0019960
        k(  107) = (   0.4900000   0.3059956   0.0000000), wk =   0.0019960
        k(  108) = (   0.4883333   0.3088824   0.0000000), wk =   0.0019960
        k(  109) = (   0.4866667   0.3117691   0.0000000), wk =   0.0019960
        k(  110) = (   0.4850000   0.3146559   0.0000000), wk =   0.0019960
        k(  111) = (   0.4833333   0.3175426   0.0000000), wk =   0.0019960
        k(  112) = (   0.4816667   0.3204294   0.0000000), wk =   0.0019960
        k(  113) = (   0.4800000   0.3233162   0.0000000), wk =   0.0019960
        k(  114) = (   0.4783333   0.3262029   0.0000000), wk =   0.0019960
        k(  115) = (   0.4766667   0.3290897   0.0000000), wk =   0.0019960
        k(  116) = (   0.4750000   0.3319764   0.0000000), wk =   0.0019960
        k(  117) = (   0.4733333   0.3348632   0.0000000), wk =   0.0019960
        k(  118) = (   0.4716667   0.3377499   0.0000000), wk =   0.0019960
        k(  119) = (   0.4700000   0.3406367   0.0000000), wk =   0.0019960
        k(  120) = (   0.4683333   0.3435234   0.0000000), wk =   0.0019960
        k(  121) = (   0.4666667   0.3464102   0.0000000), wk =   0.0019960
        k(  122) = (   0.4650000   0.3492969   0.0000000), wk =   0.0019960
        k(  123) = (   0.4633333   0.3521837   0.0000000), wk =   0.0019960
        k(  124) = (   0.4616667   0.3550704   0.0000000), wk =   0.0019960
        k(  125) = (   0.4600000   0.3579572   0.0000000), wk =   0.0019960
        k(  126) = (   0.4583333   0.3608439   0.0000000), wk =   0.0019960
        k(  127) = (   0.4566667   0.3637307   0.0000000), wk =   0.0019960
        k(  128) = (   0.4550000   0.3666174   0.0000000), wk =   0.0019960
        k(  129) = (   0.4533333   0.3695042   0.0000000), wk =   0.0019960
        k(  130) = (   0.4516667   0.3723909   0.0000000), wk =   0.0019960
        k(  131) = (   0.4500000   0.3752777   0.0000000), wk =   0.0019960
        k(  132) = (   0.4483333   0.3781644   0.0000000), wk =   0.0019960
        k(  133) = (   0.4466667   0.3810512   0.0000000), wk =   0.0019960
        k(  134) = (   0.4450000   0.3839379   0.0000000), wk =   0.0019960
        k(  135) = (   0.4433333   0.3868247   0.0000000), wk =   0.0019960
        k(  136) = (   0.4416667   0.3897114   0.0000000), wk =   0.0019960
        k(  137) = (   0.4400000   0.3925982   0.0000000), wk =   0.0019960
        k(  138) = (   0.4383333   0.3954849   0.0000000), wk =   0.0019960
        k(  139) = (   0.4366667   0.3983717   0.0000000), wk =   0.0019960
        k(  140) = (   0.4350000   0.4012584   0.0000000), wk =   0.0019960
        k(  141) = (   0.4333333   0.4041452   0.0000000), wk =   0.0019960
        k(  142) = (   0.4316667   0.4070319   0.0000000), wk =   0.0019960
        k(  143) = (   0.4300000   0.4099187   0.0000000), wk =   0.0019960
        k(  144) = (   0.4283333   0.4128054   0.0000000), wk =   0.0019960
        k(  145) = (   0.4266667   0.4156922   0.0000000), wk =   0.0019960
        k(  146) = (   0.4250000   0.4185789   0.0000000), wk =   0.0019960
        k(  147) = (   0.4233333   0.4214657   0.0000000), wk =   0.0019960
        k(  148) = (   0.4216667   0.4243524   0.0000000), wk =   0.0019960
        k(  149) = (   0.4200000   0.4272392   0.0000000), wk =   0.0019960
        k(  150) = (   0.4183333   0.4301259   0.0000000), wk =   0.0019960
        k(  151) = (   0.4166667   0.4330127   0.0000000), wk =   0.0019960
        k(  152) = (   0.4150000   0.4358995   0.0000000), wk =   0.0019960
        k(  153) = (   0.4133333   0.4387862   0.0000000), wk =   0.0019960
        k(  154) = (   0.4116667   0.4416730   0.0000000), wk =   0.0019960
        k(  155) = (   0.4100000   0.4445597   0.0000000), wk =   0.0019960
        k(  156) = (   0.4083333   0.4474465   0.0000000), wk =   0.0019960
        k(  157) = (   0.4066667   0.4503332   0.0000000), wk =   0.0019960
        k(  158) = (   0.4050000   0.4532200   0.0000000), wk =   0.0019960
        k(  159) = (   0.4033333   0.4561067   0.0000000), wk =   0.0019960
        k(  160) = (   0.4016667   0.4589935   0.0000000), wk =   0.0019960
        k(  161) = (   0.4000000   0.4618802   0.0000000), wk =   0.0019960
        k(  162) = (   0.3983333   0.4647670   0.0000000), wk =   0.0019960
        k(  163) = (   0.3966667   0.4676537   0.0000000), wk =   0.0019960
        k(  164) = (   0.3950000   0.4705405   0.0000000), wk =   0.0019960
        k(  165) = (   0.3933333   0.4734272   0.0000000), wk =   0.0019960
        k(  166) = (   0.3916667   0.4763140   0.0000000), wk =   0.0019960
        k(  167) = (   0.3900000   0.4792007   0.0000000), wk =   0.0019960
        k(  168) = (   0.3883333   0.4820875   0.0000000), wk =   0.0019960
        k(  169) = (   0.3866667   0.4849742   0.0000000), wk =   0.0019960
        k(  170) = (   0.3850000   0.4878610   0.0000000), wk =   0.0019960
        k(  171) = (   0.3833333   0.4907477   0.0000000), wk =   0.0019960
        k(  172) = (   0.3816667   0.4936345   0.0000000), wk =   0.0019960
        k(  173) = (   0.3800000   0.4965212   0.0000000), wk =   0.0019960
        k(  174) = (   0.3783333   0.4994080   0.0000000), wk =   0.0019960
        k(  175) = (   0.3766667   0.5022947   0.0000000), wk =   0.0019960
        k(  176) = (   0.3750000   0.5051815   0.0000000), wk =   0.0019960
        k(  177) = (   0.3733333   0.5080682   0.0000000), wk =   0.0019960
        k(  178) = (   0.3716667   0.5109550   0.0000000), wk =   0.0019960
        k(  179) = (   0.3700000   0.5138417   0.0000000), wk =   0.0019960
        k(  180) = (   0.3683333   0.5167285   0.0000000), wk =   0.0019960
        k(  181) = (   0.3666667   0.5196152   0.0000000), wk =   0.0019960
        k(  182) = (   0.3650000   0.5225020   0.0000000), wk =   0.0019960
        k(  183) = (   0.3633333   0.5253887   0.0000000), wk =   0.0019960
        k(  184) = (   0.3616667   0.5282755   0.0000000), wk =   0.0019960
        k(  185) = (   0.3600000   0.5311622   0.0000000), wk =   0.0019960
        k(  186) = (   0.3583333   0.5340490   0.0000000), wk =   0.0019960
        k(  187) = (   0.3566667   0.5369357   0.0000000), wk =   0.0019960
        k(  188) = (   0.3550000   0.5398225   0.0000000), wk =   0.0019960
        k(  189) = (   0.3533333   0.5427092   0.0000000), wk =   0.0019960
        k(  190) = (   0.3516667   0.5455960   0.0000000), wk =   0.0019960
        k(  191) = (   0.3500000   0.5484828   0.0000000), wk =   0.0019960
        k(  192) = (   0.3483333   0.5513695   0.0000000), wk =   0.0019960
        k(  193) = (   0.3466667   0.5542563   0.0000000), wk =   0.0019960
        k(  194) = (   0.3450000   0.5571430   0.0000000), wk =   0.0019960
        k(  195) = (   0.3433333   0.5600298   0.0000000), wk =   0.0019960
        k(  196) = (   0.3416667   0.5629165   0.0000000), wk =   0.0019960
        k(  197) = (   0.3400000   0.5658033   0.0000000), wk =   0.0019960
        k(  198) = (   0.3383333   0.5686900   0.0000000), wk =   0.0019960
        k(  199) = (   0.3366667   0.5715768   0.0000000), wk =   0.0019960
        k(  200) = (   0.3350000   0.5744635   0.0000000), wk =   0.0019960
        k(  201) = (   0.3333333   0.5773503   0.0000000), wk =   0.0019960
        k(  202) = (   0.3300000   0.5773503   0.0000000), wk =   0.0019960
        k(  203) = (   0.3266667   0.5773503   0.0000000), wk =   0.0019960
        k(  204) = (   0.3233333   0.5773503   0.0000000), wk =   0.0019960
        k(  205) = (   0.3200000   0.5773503   0.0000000), wk =   0.0019960
        k(  206) = (   0.3166667   0.5773503   0.0000000), wk =   0.0019960
        k(  207) = (   0.3133333   0.5773503   0.0000000), wk =   0.0019960
        k(  208) = (   0.3100000   0.5773503   0.0000000), wk =   0.0019960
        k(  209) = (   0.3066667   0.5773503   0.0000000), wk =   0.0019960
        k(  210) = (   0.3033333   0.5773503   0.0000000), wk =   0.0019960
        k(  211) = (   0.3000000   0.5773503   0.0000000), wk =   0.0019960
        k(  212) = (   0.2966667   0.5773503   0.0000000), wk =   0.0019960
        k(  213) = (   0.2933333   0.5773503   0.0000000), wk =   0.0019960
        k(  214) = (   0.2900000   0.5773503   0.0000000), wk =   0.0019960
        k(  215) = (   0.2866667   0.5773503   0.0000000), wk =   0.0019960
        k(  216) = (   0.2833333   0.5773503   0.0000000), wk =   0.0019960
        k(  217) = (   0.2800000   0.5773503   0.0000000), wk =   0.0019960
        k(  218) = (   0.2766667   0.5773503   0.0000000), wk =   0.0019960
        k(  219) = (   0.2733333   0.5773503   0.0000000), wk =   0.0019960
        k(  220) = (   0.2700000   0.5773503   0.0000000), wk =   0.0019960
        k(  221) = (   0.2666667   0.5773503   0.0000000), wk =   0.0019960
        k(  222) = (   0.2633333   0.5773503   0.0000000), wk =   0.0019960
        k(  223) = (   0.2600000   0.5773503   0.0000000), wk =   0.0019960
        k(  224) = (   0.2566667   0.5773503   0.0000000), wk =   0.0019960
        k(  225) = (   0.2533333   0.5773503   0.0000000), wk =   0.0019960
        k(  226) = (   0.2500000   0.5773503   0.0000000), wk =   0.0019960
        k(  227) = (   0.2466667   0.5773503   0.0000000), wk =   0.0019960
        k(  228) = (   0.2433333   0.5773503   0.0000000), wk =   0.0019960
        k(  229) = (   0.2400000   0.5773503   0.0000000), wk =   0.0019960
        k(  230) = (   0.2366667   0.5773503   0.0000000), wk =   0.0019960
        k(  231) = (   0.2333333   0.5773503   0.0000000), wk =   0.0019960
        k(  232) = (   0.2300000   0.5773503   0.0000000), wk =   0.0019960
        k(  233) = (   0.2266667   0.5773503   0.0000000), wk =   0.0019960
        k(  234) = (   0.2233333   0.5773503   0.0000000), wk =   0.0019960
        k(  235) = (   0.2200000   0.5773503   0.0000000), wk =   0.0019960
        k(  236) = (   0.2166667   0.5773503   0.0000000), wk =   0.0019960
        k(  237) = (   0.2133333   0.5773503   0.0000000), wk =   0.0019960
        k(  238) = (   0.2100000   0.5773503   0.0000000), wk =   0.0019960
        k(  239) = (   0.2066667   0.5773503   0.0000000), wk =   0.0019960
        k(  240) = (   0.2033333   0.5773503   0.0000000), wk =   0.0019960
        k(  241) = (   0.2000000   0.5773503   0.0000000), wk =   0.0019960
        k(  242) = (   0.1966667   0.5773503   0.0000000), wk =   0.0019960
        k(  243) = (   0.1933333   0.5773503   0.0000000), wk =   0.0019960
        k(  244) = (   0.1900000   0.5773503   0.0000000), wk =   0.0019960
        k(  245) = (   0.1866667   0.5773503   0.0000000), wk =   0.0019960
        k(  246) = (   0.1833333   0.5773503   0.0000000), wk =   0.0019960
        k(  247) = (   0.1800000   0.5773503   0.0000000), wk =   0.0019960
        k(  248) = (   0.1766667   0.5773503   0.0000000), wk =   0.0019960
        k(  249) = (   0.1733333   0.5773503   0.0000000), wk =   0.0019960
        k(  250) = (   0.1700000   0.5773503   0.0000000), wk =   0.0019960
        k(  251) = (   0.1666667   0.5773503   0.0000000), wk =   0.0019960
        k(  252) = (   0.1633333   0.5773503   0.0000000), wk =   0.0019960
        k(  253) = (   0.1600000   0.5773503   0.0000000), wk =   0.0019960
        k(  254) = (   0.1566667   0.5773503   0.0000000), wk =   0.0019960
        k(  255) = (   0.1533333   0.5773503   0.0000000), wk =   0.0019960
        k(  256) = (   0.1500000   0.5773503   0.0000000), wk =   0.0019960
        k(  257) = (   0.1466667   0.5773503   0.0000000), wk =   0.0019960
        k(  258) = (   0.1433333   0.5773503   0.0000000), wk =   0.0019960
        k(  259) = (   0.1400000   0.5773503   0.0000000), wk =   0.0019960
        k(  260) = (   0.1366667   0.5773503   0.0000000), wk =   0.0019960
        k(  261) = (   0.1333333   0.5773503   0.0000000), wk =   0.0019960
        k(  262) = (   0.1300000   0.5773503   0.0000000), wk =   0.0019960
        k(  263) = (   0.1266667   0.5773503   0.0000000), wk =   0.0019960
        k(  264) = (   0.1233333   0.5773503   0.0000000), wk =   0.0019960
        k(  265) = (   0.1200000   0.5773503   0.0000000), wk =   0.0019960
        k(  266) = (   0.1166667   0.5773503   0.0000000), wk =   0.0019960
        k(  267) = (   0.1133333   0.5773503   0.0000000), wk =   0.0019960
        k(  268) = (   0.1100000   0.5773503   0.0000000), wk =   0.0019960
        k(  269) = (   0.1066667   0.5773503   0.0000000), wk =   0.0019960
        k(  270) = (   0.1033333   0.5773503   0.0000000), wk =   0.0019960
        k(  271) = (   0.1000000   0.5773503   0.0000000), wk =   0.0019960
        k(  272) = (   0.0966667   0.5773503   0.0000000), wk =   0.0019960
        k(  273) = (   0.0933333   0.5773503   0.0000000), wk =   0.0019960
        k(  274) = (   0.0900000   0.5773503   0.0000000), wk =   0.0019960
        k(  275) = (   0.0866667   0.5773503   0.0000000), wk =   0.0019960
        k(  276) = (   0.0833333   0.5773503   0.0000000), wk =   0.0019960
        k(  277) = (   0.0800000   0.5773503   0.0000000), wk =   0.0019960
        k(  278) = (   0.0766667   0.5773503   0.0000000), wk =   0.0019960
        k(  279) = (   0.0733333   0.5773503   0.0000000), wk =   0.0019960
        k(  280) = (   0.0700000   0.5773503   0.0000000), wk =   0.0019960
        k(  281) = (   0.0666667   0.5773503   0.0000000), wk =   0.0019960
        k(  282) = (   0.0633333   0.5773503   0.0000000), wk =   0.0019960
        k(  283) = (   0.0600000   0.5773503   0.0000000), wk =   0.0019960
        k(  284) = (   0.0566667   0.5773503   0.0000000), wk =   0.0019960
        k(  285) = (   0.0533333   0.5773503   0.0000000), wk =   0.0019960
        k(  286) = (   0.0500000   0.5773503   0.0000000), wk =   0.0019960
        k(  287) = (   0.0466667   0.5773503   0.0000000), wk =   0.0019960
        k(  288) = (   0.0433333   0.5773503   0.0000000), wk =   0.0019960
        k(  289) = (   0.0400000   0.5773503   0.0000000), wk =   0.0019960
        k(  290) = (   0.0366667   0.5773503   0.0000000), wk =   0.0019960
        k(  291) = (   0.0333333   0.5773503   0.0000000), wk =   0.0019960
        k(  292) = (   0.0300000   0.5773503   0.0000000), wk =   0.0019960
        k(  293) = (   0.0266667   0.5773503   0.0000000), wk =   0.0019960
        k(  294) = (   0.0233333   0.5773503   0.0000000), wk =   0.0019960
        k(  295) = (   0.0200000   0.5773503   0.0000000), wk =   0.0019960
        k(  296) = (   0.0166667   0.5773503   0.0000000), wk =   0.0019960
        k(  297) = (   0.0133333   0.5773503   0.0000000), wk =   0.0019960
        k(  298) = (   0.0100000   0.5773503   0.0000000), wk =   0.0019960
        k(  299) = (   0.0066667   0.5773503   0.0000000), wk =   0.0019960
        k(  300) = (   0.0033333   0.5773503   0.0000000), wk =   0.0019960
        k(  301) = (   0.0000000   0.5773503   0.0000000), wk =   0.0019960
        k(  302) = (   0.0066667   0.5831238   0.0000000), wk =   0.0019960
        k(  303) = (   0.0133333   0.5888973   0.0000000), wk =   0.0019960
        k(  304) = (   0.0200000   0.5946708   0.0000000), wk =   0.0019960
        k(  305) = (   0.0266667   0.6004443   0.0000000), wk =   0.0019960
        k(  306) = (   0.0333333   0.6062178   0.0000000), wk =   0.0019960
        k(  307) = (   0.0400000   0.6119913   0.0000000), wk =   0.0019960
        k(  308) = (   0.0466667   0.6177648   0.0000000), wk =   0.0019960
        k(  309) = (   0.0533333   0.6235383   0.0000000), wk =   0.0019960
        k(  310) = (   0.0600000   0.6293118   0.0000000), wk =   0.0019960
        k(  311) = (   0.0666667   0.6350853   0.0000000), wk =   0.0019960
        k(  312) = (   0.0733333   0.6408588   0.0000000), wk =   0.0019960
        k(  313) = (   0.0800000   0.6466323   0.0000000), wk =   0.0019960
        k(  314) = (   0.0866667   0.6524058   0.0000000), wk =   0.0019960
        k(  315) = (   0.0933333   0.6581793   0.0000000), wk =   0.0019960
        k(  316) = (   0.1000000   0.6639528   0.0000000), wk =   0.0019960
        k(  317) = (   0.1066667   0.6697263   0.0000000), wk =   0.0019960
        k(  318) = (   0.1133333   0.6754998   0.0000000), wk =   0.0019960
        k(  319) = (   0.1200000   0.6812733   0.0000000), wk =   0.0019960
        k(  320) = (   0.1266667   0.6870468   0.0000000), wk =   0.0019960
        k(  321) = (   0.1333333   0.6928203   0.0000000), wk =   0.0019960
        k(  322) = (   0.1400000   0.6985938   0.0000000), wk =   0.0019960
        k(  323) = (   0.1466667   0.7043673   0.0000000), wk =   0.0019960
        k(  324) = (   0.1533333   0.7101408   0.0000000), wk =   0.0019960
        k(  325) = (   0.1600000   0.7159143   0.0000000), wk =   0.0019960
        k(  326) = (   0.1666667   0.7216878   0.0000000), wk =   0.0019960
        k(  327) = (   0.1733333   0.7274613   0.0000000), wk =   0.0019960
        k(  328) = (   0.1800000   0.7332348   0.0000000), wk =   0.0019960
        k(  329) = (   0.1866667   0.7390083   0.0000000), wk =   0.0019960
        k(  330) = (   0.1933333   0.7447818   0.0000000), wk =   0.0019960
        k(  331) = (   0.2000000   0.7505554   0.0000000), wk =   0.0019960
        k(  332) = (   0.2066667   0.7563289   0.0000000), wk =   0.0019960
        k(  333) = (   0.2133333   0.7621024   0.0000000), wk =   0.0019960
        k(  334) = (   0.2200000   0.7678759   0.0000000), wk =   0.0019960
        k(  335) = (   0.2266667   0.7736494   0.0000000), wk =   0.0019960
        k(  336) = (   0.2333333   0.7794229   0.0000000), wk =   0.0019960
        k(  337) = (   0.2400000   0.7851964   0.0000000), wk =   0.0019960
        k(  338) = (   0.2466667   0.7909699   0.0000000), wk =   0.0019960
        k(  339) = (   0.2533333   0.7967434   0.0000000), wk =   0.0019960
        k(  340) = (   0.2600000   0.8025169   0.0000000), wk =   0.0019960
        k(  341) = (   0.2666667   0.8082904   0.0000000), wk =   0.0019960
        k(  342) = (   0.2733333   0.8140639   0.0000000), wk =   0.0019960
        k(  343) = (   0.2800000   0.8198374   0.0000000), wk =   0.0019960
        k(  344) = (   0.2866667   0.8256109   0.0000000), wk =   0.0019960
        k(  345) = (   0.2933333   0.8313844   0.0000000), wk =   0.0019960
        k(  346) = (   0.3000000   0.8371579   0.0000000), wk =   0.0019960
        k(  347) = (   0.3066667   0.8429314   0.0000000), wk =   0.0019960
        k(  348) = (   0.3133333   0.8487049   0.0000000), wk =   0.0019960
        k(  349) = (   0.3200000   0.8544784   0.0000000), wk =   0.0019960
        k(  350) = (   0.3266667   0.8602519   0.0000000), wk =   0.0019960
        k(  351) = (   0.3333333   0.8660254   0.0000000), wk =   0.0019960
        k(  352) = (   0.3400000   0.8717989   0.0000000), wk =   0.0019960
        k(  353) = (   0.3466667   0.8775724   0.0000000), wk =   0.0019960
        k(  354) = (   0.3533333   0.8833459   0.0000000), wk =   0.0019960
        k(  355) = (   0.3600000   0.8891194   0.0000000), wk =   0.0019960
        k(  356) = (   0.3666667   0.8948929   0.0000000), wk =   0.0019960
        k(  357) = (   0.3733333   0.9006664   0.0000000), wk =   0.0019960
        k(  358) = (   0.3800000   0.9064399   0.0000000), wk =   0.0019960
        k(  359) = (   0.3866667   0.9122134   0.0000000), wk =   0.0019960
        k(  360) = (   0.3933333   0.9179869   0.0000000), wk =   0.0019960
        k(  361) = (   0.4000000   0.9237604   0.0000000), wk =   0.0019960
        k(  362) = (   0.4066667   0.9295339   0.0000000), wk =   0.0019960
        k(  363) = (   0.4133333   0.9353074   0.0000000), wk =   0.0019960
        k(  364) = (   0.4200000   0.9410809   0.0000000), wk =   0.0019960
        k(  365) = (   0.4266667   0.9468544   0.0000000), wk =   0.0019960
        k(  366) = (   0.4333333   0.9526279   0.0000000), wk =   0.0019960
        k(  367) = (   0.4400000   0.9584015   0.0000000), wk =   0.0019960
        k(  368) = (   0.4466667   0.9641750   0.0000000), wk =   0.0019960
        k(  369) = (   0.4533333   0.9699485   0.0000000), wk =   0.0019960
        k(  370) = (   0.4600000   0.9757220   0.0000000), wk =   0.0019960
        k(  371) = (   0.4666667   0.9814955   0.0000000), wk =   0.0019960
        k(  372) = (   0.4733333   0.9872690   0.0000000), wk =   0.0019960
        k(  373) = (   0.4800000   0.9930425   0.0000000), wk =   0.0019960
        k(  374) = (   0.4866667   0.9988160   0.0000000), wk =   0.0019960
        k(  375) = (   0.4933333   1.0045895   0.0000000), wk =   0.0019960
        k(  376) = (   0.5000000   1.0103630   0.0000000), wk =   0.0019960
        k(  377) = (   0.5066667   1.0161365   0.0000000), wk =   0.0019960
        k(  378) = (   0.5133333   1.0219100   0.0000000), wk =   0.0019960
        k(  379) = (   0.5200000   1.0276835   0.0000000), wk =   0.0019960
        k(  380) = (   0.5266667   1.0334570   0.0000000), wk =   0.0019960
        k(  381) = (   0.5333333   1.0392305   0.0000000), wk =   0.0019960
        k(  382) = (   0.5400000   1.0450040   0.0000000), wk =   0.0019960
        k(  383) = (   0.5466667   1.0507775   0.0000000), wk =   0.0019960
        k(  384) = (   0.5533333   1.0565510   0.0000000), wk =   0.0019960
        k(  385) = (   0.5600000   1.0623245   0.0000000), wk =   0.0019960
        k(  386) = (   0.5666667   1.0680980   0.0000000), wk =   0.0019960
        k(  387) = (   0.5733333   1.0738715   0.0000000), wk =   0.0019960
        k(  388) = (   0.5800000   1.0796450   0.0000000), wk =   0.0019960
        k(  389) = (   0.5866667   1.0854185   0.0000000), wk =   0.0019960
        k(  390) = (   0.5933333   1.0911920   0.0000000), wk =   0.0019960
        k(  391) = (   0.6000000   1.0969655   0.0000000), wk =   0.0019960
        k(  392) = (   0.6066667   1.1027390   0.0000000), wk =   0.0019960
        k(  393) = (   0.6133333   1.1085125   0.0000000), wk =   0.0019960
        k(  394) = (   0.6200000   1.1142860   0.0000000), wk =   0.0019960
        k(  395) = (   0.6266667   1.1200595   0.0000000), wk =   0.0019960
        k(  396) = (   0.6333333   1.1258330   0.0000000), wk =   0.0019960
        k(  397) = (   0.6400000   1.1316065   0.0000000), wk =   0.0019960
        k(  398) = (   0.6466667   1.1373800   0.0000000), wk =   0.0019960
        k(  399) = (   0.6533333   1.1431535   0.0000000), wk =   0.0019960
        k(  400) = (   0.6600000   1.1489270   0.0000000), wk =   0.0019960
        k(  401) = (   0.6666667   1.1547005   0.0000000), wk =   0.0019960
        k(  402) = (   0.6600000   1.1431535   0.0000000), wk =   0.0019960
        k(  403) = (   0.6533333   1.1316065   0.0000000), wk =   0.0019960
        k(  404) = (   0.6466667   1.1200595   0.0000000), wk =   0.0019960
        k(  405) = (   0.6400000   1.1085125   0.0000000), wk =   0.0019960
        k(  406) = (   0.6333333   1.0969655   0.0000000), wk =   0.0019960
        k(  407) = (   0.6266667   1.0854185   0.0000000), wk =   0.0019960
        k(  408) = (   0.6200000   1.0738715   0.0000000), wk =   0.0019960
        k(  409) = (   0.6133333   1.0623245   0.0000000), wk =   0.0019960
        k(  410) = (   0.6066667   1.0507775   0.0000000), wk =   0.0019960
        k(  411) = (   0.6000000   1.0392305   0.0000000), wk =   0.0019960
        k(  412) = (   0.5933333   1.0276835   0.0000000), wk =   0.0019960
        k(  413) = (   0.5866667   1.0161365   0.0000000), wk =   0.0019960
        k(  414) = (   0.5800000   1.0045895   0.0000000), wk =   0.0019960
        k(  415) = (   0.5733333   0.9930425   0.0000000), wk =   0.0019960
        k(  416) = (   0.5666667   0.9814955   0.0000000), wk =   0.0019960
        k(  417) = (   0.5600000   0.9699485   0.0000000), wk =   0.0019960
        k(  418) = (   0.5533333   0.9584015   0.0000000), wk =   0.0019960
        k(  419) = (   0.5466667   0.9468544   0.0000000), wk =   0.0019960
        k(  420) = (   0.5400000   0.9353074   0.0000000), wk =   0.0019960
        k(  421) = (   0.5333333   0.9237604   0.0000000), wk =   0.0019960
        k(  422) = (   0.5266667   0.9122134   0.0000000), wk =   0.0019960
        k(  423) = (   0.5200000   0.9006664   0.0000000), wk =   0.0019960
        k(  424) = (   0.5133333   0.8891194   0.0000000), wk =   0.0019960
        k(  425) = (   0.5066667   0.8775724   0.0000000), wk =   0.0019960
        k(  426) = (   0.5000000   0.8660254   0.0000000), wk =   0.0019960
        k(  427) = (   0.4933333   0.8544784   0.0000000), wk =   0.0019960
        k(  428) = (   0.4866667   0.8429314   0.0000000), wk =   0.0019960
        k(  429) = (   0.4800000   0.8313844   0.0000000), wk =   0.0019960
        k(  430) = (   0.4733333   0.8198374   0.0000000), wk =   0.0019960
        k(  431) = (   0.4666667   0.8082904   0.0000000), wk =   0.0019960
        k(  432) = (   0.4600000   0.7967434   0.0000000), wk =   0.0019960
        k(  433) = (   0.4533333   0.7851964   0.0000000), wk =   0.0019960
        k(  434) = (   0.4466667   0.7736494   0.0000000), wk =   0.0019960
        k(  435) = (   0.4400000   0.7621024   0.0000000), wk =   0.0019960
        k(  436) = (   0.4333333   0.7505554   0.0000000), wk =   0.0019960
        k(  437) = (   0.4266667   0.7390083   0.0000000), wk =   0.0019960
        k(  438) = (   0.4200000   0.7274613   0.0000000), wk =   0.0019960
        k(  439) = (   0.4133333   0.7159143   0.0000000), wk =   0.0019960
        k(  440) = (   0.4066667   0.7043673   0.0000000), wk =   0.0019960
        k(  441) = (   0.4000000   0.6928203   0.0000000), wk =   0.0019960
        k(  442) = (   0.3933333   0.6812733   0.0000000), wk =   0.0019960
        k(  443) = (   0.3866667   0.6697263   0.0000000), wk =   0.0019960
        k(  444) = (   0.3800000   0.6581793   0.0000000), wk =   0.0019960
        k(  445) = (   0.3733333   0.6466323   0.0000000), wk =   0.0019960
        k(  446) = (   0.3666667   0.6350853   0.0000000), wk =   0.0019960
        k(  447) = (   0.3600000   0.6235383   0.0000000), wk =   0.0019960
        k(  448) = (   0.3533333   0.6119913   0.0000000), wk =   0.0019960
        k(  449) = (   0.3466667   0.6004443   0.0000000), wk =   0.0019960
        k(  450) = (   0.3400000   0.5888973   0.0000000), wk =   0.0019960
        k(  451) = (   0.3333333   0.5773503   0.0000000), wk =   0.0019960
        k(  452) = (   0.3266667   0.5658033   0.0000000), wk =   0.0019960
        k(  453) = (   0.3200000   0.5542563   0.0000000), wk =   0.0019960
        k(  454) = (   0.3133333   0.5427093   0.0000000), wk =   0.0019960
        k(  455) = (   0.3066667   0.5311623   0.0000000), wk =   0.0019960
        k(  456) = (   0.3000000   0.5196152   0.0000000), wk =   0.0019960
        k(  457) = (   0.2933333   0.5080682   0.0000000), wk =   0.0019960
        k(  458) = (   0.2866667   0.4965212   0.0000000), wk =   0.0019960
        k(  459) = (   0.2800000   0.4849742   0.0000000), wk =   0.0019960
        k(  460) = (   0.2733333   0.4734272   0.0000000), wk =   0.0019960
        k(  461) = (   0.2666667   0.4618802   0.0000000), wk =   0.0019960
        k(  462) = (   0.2600000   0.4503332   0.0000000), wk =   0.0019960
        k(  463) = (   0.2533333   0.4387862   0.0000000), wk =   0.0019960
        k(  464) = (   0.2466667   0.4272392   0.0000000), wk =   0.0019960
        k(  465) = (   0.2400000   0.4156922   0.0000000), wk =   0.0019960
        k(  466) = (   0.2333333   0.4041452   0.0000000), wk =   0.0019960
        k(  467) = (   0.2266667   0.3925982   0.0000000), wk =   0.0019960
        k(  468) = (   0.2200000   0.3810512   0.0000000), wk =   0.0019960
        k(  469) = (   0.2133333   0.3695042   0.0000000), wk =   0.0019960
        k(  470) = (   0.2066667   0.3579572   0.0000000), wk =   0.0019960
        k(  471) = (   0.2000000   0.3464102   0.0000000), wk =   0.0019960
        k(  472) = (   0.1933333   0.3348632   0.0000000), wk =   0.0019960
        k(  473) = (   0.1866667   0.3233162   0.0000000), wk =   0.0019960
        k(  474) = (   0.1800000   0.3117691   0.0000000), wk =   0.0019960
        k(  475) = (   0.1733333   0.3002221   0.0000000), wk =   0.0019960
        k(  476) = (   0.1666667   0.2886751   0.0000000), wk =   0.0019960
        k(  477) = (   0.1600000   0.2771281   0.0000000), wk =   0.0019960
        k(  478) = (   0.1533333   0.2655811   0.0000000), wk =   0.0019960
        k(  479) = (   0.1466667   0.2540341   0.0000000), wk =   0.0019960
        k(  480) = (   0.1400000   0.2424871   0.0000000), wk =   0.0019960
        k(  481) = (   0.1333333   0.2309401   0.0000000), wk =   0.0019960
        k(  482) = (   0.1266667   0.2193931   0.0000000), wk =   0.0019960
        k(  483) = (   0.1200000   0.2078461   0.0000000), wk =   0.0019960
        k(  484) = (   0.1133333   0.1962991   0.0000000), wk =   0.0019960
        k(  485) = (   0.1066667   0.1847521   0.0000000), wk =   0.0019960
        k(  486) = (   0.1000000   0.1732051   0.0000000), wk =   0.0019960
        k(  487) = (   0.0933333   0.1616581   0.0000000), wk =   0.0019960
        k(  488) = (   0.0866667   0.1501111   0.0000000), wk =   0.0019960
        k(  489) = (   0.0800000   0.1385641   0.0000000), wk =   0.0019960
        k(  490) = (   0.0733333   0.1270171   0.0000000), wk =   0.0019960
        k(  491) = (   0.0666667   0.1154701   0.0000000), wk =   0.0019960
        k(  492) = (   0.0600000   0.1039230   0.0000000), wk =   0.0019960
        k(  493) = (   0.0533333   0.0923760   0.0000000), wk =   0.0019960
        k(  494) = (   0.0466667   0.0808290   0.0000000), wk =   0.0019960
        k(  495) = (   0.0400000   0.0692820   0.0000000), wk =   0.0019960
        k(  496) = (   0.0333333   0.0577350   0.0000000), wk =   0.0019960
        k(  497) = (   0.0266667   0.0461880   0.0000000), wk =   0.0019960
        k(  498) = (   0.0200000   0.0346410   0.0000000), wk =   0.0019960
        k(  499) = (   0.0133333   0.0230940   0.0000000), wk =   0.0019960
        k(  500) = (   0.0066667   0.0115470   0.0000000), wk =   0.0019960
        k(  501) = (   0.0000000   0.0000000   0.0000000), wk =   0.0019960

                       cryst. coord.
        k(    1) = (   0.0000000   0.0000000   0.0000000), wk =   0.0019960
        k(    2) = (   0.0050000  -0.0000000   0.0000000), wk =   0.0019960
        k(    3) = (   0.0100000  -0.0000000   0.0000000), wk =   0.0019960
        k(    4) = (   0.0150000  -0.0000000   0.0000000), wk =   0.0019960
        k(    5) = (   0.0200000  -0.0000000   0.0000000), wk =   0.0019960
        k(    6) = (   0.0250000  -0.0000000   0.0000000), wk =   0.0019960
        k(    7) = (   0.0300000  -0.0000000   0.0000000), wk =   0.0019960
        k(    8) = (   0.0350000   0.0000000   0.0000000), wk =   0.0019960
        k(    9) = (   0.0400000  -0.0000000   0.0000000), wk =   0.0019960
        k(   10) = (   0.0450000  -0.0000000   0.0000000), wk =   0.0019960
        k(   11) = (   0.0500000  -0.0000000   0.0000000), wk =   0.0019960
        k(   12) = (   0.0550000  -0.0000000   0.0000000), wk =   0.0019960
        k(   13) = (   0.0600000  -0.0000000   0.0000000), wk =   0.0019960
        k(   14) = (   0.0650000   0.0000000   0.0000000), wk =   0.0019960
        k(   15) = (   0.0700000   0.0000000   0.0000000), wk =   0.0019960
        k(   16) = (   0.0750000   0.0000000   0.0000000), wk =   0.0019960
        k(   17) = (   0.0800000  -0.0000000   0.0000000), wk =   0.0019960
        k(   18) = (   0.0850000  -0.0000000   0.0000000), wk =   0.0019960
        k(   19) = (   0.0900000  -0.0000000   0.0000000), wk =   0.0019960
        k(   20) = (   0.0950000  -0.0000000   0.0000000), wk =   0.0019960
        k(   21) = (   0.1000000  -0.0000000   0.0000000), wk =   0.0019960
        k(   22) = (   0.1050000   0.0000000   0.0000000), wk =   0.0019960
        k(   23) = (   0.1100000  -0.0000000   0.0000000), wk =   0.0019960
        k(   24) = (   0.1150000  -0.0000000   0.0000000), wk =   0.0019960
        k(   25) = (   0.1200000  -0.0000000   0.0000000), wk =   0.0019960
        k(   26) = (   0.1250000   0.0000000   0.0000000), wk =   0.0019960
        k(   27) = (   0.1300000   0.0000000   0.0000000), wk =   0.0019960
        k(   28) = (   0.1350000   0.0000000   0.0000000), wk =   0.0019960
        k(   29) = (   0.1400000   0.0000000   0.0000000), wk =   0.0019960
        k(   30) = (   0.1450000   0.0000000   0.0000000), wk =   0.0019960
        k(   31) = (   0.1500000   0.0000000   0.0000000), wk =   0.0019960
        k(   32) = (   0.1550000   0.0000000   0.0000000), wk =   0.0019960
        k(   33) = (   0.1600000  -0.0000000   0.0000000), wk =   0.0019960
        k(   34) = (   0.1650000  -0.0000000   0.0000000), wk =   0.0019960
        k(   35) = (   0.1700000  -0.0000000   0.0000000), wk =   0.0019960
        k(   36) = (   0.1750000  -0.0000000   0.0000000), wk =   0.0019960
        k(   37) = (   0.1800000  -0.0000000   0.0000000), wk =   0.0019960
        k(   38) = (   0.1850000  -0.0000000   0.0000000), wk =   0.0019960
        k(   39) = (   0.1900000  -0.0000000   0.0000000), wk =   0.0019960
        k(   40) = (   0.1950000  -0.0000000   0.0000000), wk =   0.0019960
        k(   41) = (   0.2000000  -0.0000000   0.0000000), wk =   0.0019960
        k(   42) = (   0.2050000  -0.0000000   0.0000000), wk =   0.0019960
        k(   43) = (   0.2100000   0.0000000   0.0000000), wk =   0.0019960
        k(   44) = (   0.2150000   0.0000000   0.0000000), wk =   0.0019960
        k(   45) = (   0.2200000  -0.0000000   0.0000000), wk =   0.0019960
        k(   46) = (   0.2250000  -0.0000000   0.0000000), wk =   0.0019960
        k(   47) = (   0.2300000  -0.0000000   0.0000000), wk =   0.0019960
        k(   48) = (   0.2350000   0.0000000   0.0000000), wk =   0.0019960
        k(   49) = (   0.2400000  -0.0000000   0.0000000), wk =   0.0019960
        k(   50) = (   0.2450000   0.0000000   0.0000000), wk =   0.0019960
        k(   51) = (   0.2500000   0.0000000   0.0000000), wk =   0.0019960
        k(   52) = (   0.2550000   0.0000000   0.0000000), wk =   0.0019960
        k(   53) = (   0.2600000   0.0000000   0.0000000), wk =   0.0019960
        k(   54) = (   0.2650000   0.0000000   0.0000000), wk =   0.0019960
        k(   55) = (   0.2700000   0.0000000   0.0000000), wk =   0.0019960
        k(   56) = (   0.2750000   0.0000000   0.0000000), wk =   0.0019960
        k(   57) = (   0.2800000   0.0000000   0.0000000), wk =   0.0019960
        k(   58) = (   0.2850000   0.0000000   0.0000000), wk =   0.0019960
        k(   59) = (   0.2900000   0.0000000   0.0000000), wk =   0.0019960
        k(   60) = (   0.2950000   0.0000000   0.0000000), wk =   0.0019960
        k(   61) = (   0.3000000   0.0000000   0.0000000), wk =   0.0019960
        k(   62) = (   0.3050000   0.0000000   0.0000000), wk =   0.0019960
        k(   63) = (   0.3100000   0.0000000   0.0000000), wk =   0.0019960
        k(   64) = (   0.3150000  -0.0000000   0.0000000), wk =   0.0019960
        k(   65) = (   0.3200000  -0.0000000   0.0000000), wk =   0.0019960
        k(   66) = (   0.3250000  -0.0000000   0.0000000), wk =   0.0019960
        k(   67) = (   0.3300000  -0.0000000   0.0000000), wk =   0.0019960
        k(   68) = (   0.3350000  -0.0000000   0.0000000), wk =   0.0019960
        k(   69) = (   0.3400000  -0.0000000   0.0000000), wk =   0.0019960
        k(   70) = (   0.3450000  -0.0000000   0.0000000), wk =   0.0019960
        k(   71) = (   0.3500000  -0.0000000   0.0000000), wk =   0.0019960
        k(   72) = (   0.3550000  -0.0000000   0.0000000), wk =   0.0019960
        k(   73) = (   0.3600000  -0.0000000   0.0000000), wk =   0.0019960
        k(   74) = (   0.3650000  -0.0000000   0.0000000), wk =   0.0019960
        k(   75) = (   0.3700000  -0.0000000   0.0000000), wk =   0.0019960
        k(   76) = (   0.3750000  -0.0000000   0.0000000), wk =   0.0019960
        k(   77) = (   0.3800000  -0.0000000   0.0000000), wk =   0.0019960
        k(   78) = (   0.3850000  -0.0000000   0.0000000), wk =   0.0019960
        k(   79) = (   0.3900000  -0.0000000   0.0000000), wk =   0.0019960
        k(   80) = (   0.3950000  -0.0000000   0.0000000), wk =   0.0019960
        k(   81) = (   0.4000000  -0.0000000   0.0000000), wk =   0.0019960
        k(   82) = (   0.4050000  -0.0000000   0.0000000), wk =   0.0019960
        k(   83) = (   0.4100000  -0.0000000   0.0000000), wk =   0.0019960
        k(   84) = (   0.4150000  -0.0000000   0.0000000), wk =   0.0019960
        k(   85) = (   0.4200000   0.0000000   0.0000000), wk =   0.0019960
        k(   86) = (   0.4250000   0.0000000   0.0000000), wk =   0.0019960
        k(   87) = (   0.4300000   0.0000000   0.0000000), wk =   0.0019960
        k(   88) = (   0.4350000   0.0000000   0.0000000), wk =   0.0019960
        k(   89) = (   0.4400000  -0.0000000   0.0000000), wk =   0.0019960
        k(   90) = (   0.4450000  -0.0000000   0.0000000), wk =   0.0019960
        k(   91) = (   0.4500000  -0.0000000   0.0000000), wk =   0.0019960
        k(   92) = (   0.4550000  -0.0000000   0.0000000), wk =   0.0019960
        k(   93) = (   0.4600000  -0.0000000   0.0000000), wk =   0.0019960
        k(   94) = (   0.4650000   0.0000000   0.0000000), wk =   0.0019960
        k(   95) = (   0.4700000   0.0000000   0.0000000), wk =   0.0019960
        k(   96) = (   0.4750000  -0.0000000   0.0000000), wk =   0.0019960
        k(   97) = (   0.4800000  -0.0000000   0.0000000), wk =   0.0019960
        k(   98) = (   0.4850000   0.0000000   0.0000000), wk =   0.0019960
        k(   99) = (   0.4900000   0.0000000   0.0000000), wk =   0.0019960
        k(  100) = (   0.4950000  -0.0000000   0.0000000), wk =   0.0019960
        k(  101) = (   0.5000000   0.0000000   0.0000000), wk =   0.0019960
        k(  102) = (   0.4983333   0.0033333   0.0000000), wk =   0.0019960
        k(  103) = (   0.4966667   0.0066667   0.0000000), wk =   0.0019960
        k(  104) = (   0.4950000   0.0100000   0.0000000), wk =   0.0019960
        k(  105) = (   0.4933333   0.0133333   0.0000000), wk =   0.0019960
        k(  106) = (   0.4916667   0.0166667   0.0000000), wk =   0.0019960
        k(  107) = (   0.4900000   0.0200000   0.0000000), wk =   0.0019960
        k(  108) = (   0.4883333   0.0233333   0.0000000), wk =   0.0019960
        k(  109) = (   0.4866667   0.0266667   0.0000000), wk =   0.0019960
        k(  110) = (   0.4850000   0.0300000   0.0000000), wk =   0.0019960
        k(  111) = (   0.4833333   0.0333333   0.0000000), wk =   0.0019960
        k(  112) = (   0.4816667   0.0366667   0.0000000), wk =   0.0019960
        k(  113) = (   0.4800000   0.0400000   0.0000000), wk =   0.0019960
        k(  114) = (   0.4783333   0.0433333   0.0000000), wk =   0.0019960
        k(  115) = (   0.4766667   0.0466667   0.0000000), wk =   0.0019960
        k(  116) = (   0.4750000   0.0500000   0.0000000), wk =   0.0019960
        k(  117) = (   0.4733333   0.0533333   0.0000000), wk =   0.0019960
        k(  118) = (   0.4716667   0.0566667   0.0000000), wk =   0.0019960
        k(  119) = (   0.4700000   0.0600000   0.0000000), wk =   0.0019960
        k(  120) = (   0.4683333   0.0633333   0.0000000), wk =   0.0019960
        k(  121) = (   0.4666667   0.0666667   0.0000000), wk =   0.0019960
        k(  122) = (   0.4650000   0.0700000   0.0000000), wk =   0.0019960
        k(  123) = (   0.4633333   0.0733333   0.0000000), wk =   0.0019960
        k(  124) = (   0.4616667   0.0766667   0.0000000), wk =   0.0019960
        k(  125) = (   0.4600000   0.0800000   0.0000000), wk =   0.0019960
        k(  126) = (   0.4583333   0.0833333   0.0000000), wk =   0.0019960
        k(  127) = (   0.4566667   0.0866667   0.0000000), wk =   0.0019960
        k(  128) = (   0.4550000   0.0900000   0.0000000), wk =   0.0019960
        k(  129) = (   0.4533333   0.0933333   0.0000000), wk =   0.0019960
        k(  130) = (   0.4516667   0.0966667   0.0000000), wk =   0.0019960
        k(  131) = (   0.4500000   0.1000000   0.0000000), wk =   0.0019960
        k(  132) = (   0.4483333   0.1033333   0.0000000), wk =   0.0019960
        k(  133) = (   0.4466667   0.1066667   0.0000000), wk =   0.0019960
        k(  134) = (   0.4450000   0.1100000   0.0000000), wk =   0.0019960
        k(  135) = (   0.4433333   0.1133333   0.0000000), wk =   0.0019960
        k(  136) = (   0.4416667   0.1166667   0.0000000), wk =   0.0019960
        k(  137) = (   0.4400000   0.1200000   0.0000000), wk =   0.0019960
        k(  138) = (   0.4383333   0.1233333   0.0000000), wk =   0.0019960
        k(  139) = (   0.4366667   0.1266667   0.0000000), wk =   0.0019960
        k(  140) = (   0.4350000   0.1300000   0.0000000), wk =   0.0019960
        k(  141) = (   0.4333333   0.1333333   0.0000000), wk =   0.0019960
        k(  142) = (   0.4316667   0.1366667   0.0000000), wk =   0.0019960
        k(  143) = (   0.4300000   0.1400000   0.0000000), wk =   0.0019960
        k(  144) = (   0.4283333   0.1433333   0.0000000), wk =   0.0019960
        k(  145) = (   0.4266667   0.1466667   0.0000000), wk =   0.0019960
        k(  146) = (   0.4250000   0.1500000   0.0000000), wk =   0.0019960
        k(  147) = (   0.4233333   0.1533333   0.0000000), wk =   0.0019960
        k(  148) = (   0.4216667   0.1566667   0.0000000), wk =   0.0019960
        k(  149) = (   0.4200000   0.1600000   0.0000000), wk =   0.0019960
        k(  150) = (   0.4183333   0.1633333   0.0000000), wk =   0.0019960
        k(  151) = (   0.4166667   0.1666667   0.0000000), wk =   0.0019960
        k(  152) = (   0.4150000   0.1700000   0.0000000), wk =   0.0019960
        k(  153) = (   0.4133333   0.1733333   0.0000000), wk =   0.0019960
        k(  154) = (   0.4116667   0.1766667   0.0000000), wk =   0.0019960
        k(  155) = (   0.4100000   0.1800000   0.0000000), wk =   0.0019960
        k(  156) = (   0.4083333   0.1833333   0.0000000), wk =   0.0019960
        k(  157) = (   0.4066667   0.1866667   0.0000000), wk =   0.0019960
        k(  158) = (   0.4050000   0.1900000   0.0000000), wk =   0.0019960
        k(  159) = (   0.4033333   0.1933333   0.0000000), wk =   0.0019960
        k(  160) = (   0.4016667   0.1966667   0.0000000), wk =   0.0019960
        k(  161) = (   0.4000000   0.2000000   0.0000000), wk =   0.0019960
        k(  162) = (   0.3983333   0.2033333   0.0000000), wk =   0.0019960
        k(  163) = (   0.3966667   0.2066667   0.0000000), wk =   0.0019960
        k(  164) = (   0.3950000   0.2100000   0.0000000), wk =   0.0019960
        k(  165) = (   0.3933333   0.2133333   0.0000000), wk =   0.0019960
        k(  166) = (   0.3916667   0.2166667   0.0000000), wk =   0.0019960
        k(  167) = (   0.3900000   0.2200000   0.0000000), wk =   0.0019960
        k(  168) = (   0.3883333   0.2233333   0.0000000), wk =   0.0019960
        k(  169) = (   0.3866667   0.2266667   0.0000000), wk =   0.0019960
        k(  170) = (   0.3850000   0.2300000   0.0000000), wk =   0.0019960
        k(  171) = (   0.3833333   0.2333333   0.0000000), wk =   0.0019960
        k(  172) = (   0.3816667   0.2366667   0.0000000), wk =   0.0019960
        k(  173) = (   0.3800000   0.2400000   0.0000000), wk =   0.0019960
        k(  174) = (   0.3783333   0.2433333   0.0000000), wk =   0.0019960
        k(  175) = (   0.3766667   0.2466667   0.0000000), wk =   0.0019960
        k(  176) = (   0.3750000   0.2500000   0.0000000), wk =   0.0019960
        k(  177) = (   0.3733333   0.2533333   0.0000000), wk =   0.0019960
        k(  178) = (   0.3716667   0.2566667   0.0000000), wk =   0.0019960
        k(  179) = (   0.3700000   0.2600000   0.0000000), wk =   0.0019960
        k(  180) = (   0.3683333   0.2633333   0.0000000), wk =   0.0019960
        k(  181) = (   0.3666667   0.2666667   0.0000000), wk =   0.0019960
        k(  182) = (   0.3650000   0.2700000   0.0000000), wk =   0.0019960
        k(  183) = (   0.3633333   0.2733333   0.0000000), wk =   0.0019960
        k(  184) = (   0.3616667   0.2766667   0.0000000), wk =   0.0019960
        k(  185) = (   0.3600000   0.2800000   0.0000000), wk =   0.0019960
        k(  186) = (   0.3583333   0.2833333   0.0000000), wk =   0.0019960
        k(  187) = (   0.3566667   0.2866667   0.0000000), wk =   0.0019960
        k(  188) = (   0.3550000   0.2900000   0.0000000), wk =   0.0019960
        k(  189) = (   0.3533333   0.2933333   0.0000000), wk =   0.0019960
        k(  190) = (   0.3516667   0.2966667   0.0000000), wk =   0.0019960
        k(  191) = (   0.3500000   0.3000000   0.0000000), wk =   0.0019960
        k(  192) = (   0.3483333   0.3033333   0.0000000), wk =   0.0019960
        k(  193) = (   0.3466667   0.3066667   0.0000000), wk =   0.0019960
        k(  194) = (   0.3450000   0.3100000   0.0000000), wk =   0.0019960
        k(  195) = (   0.3433333   0.3133333   0.0000000), wk =   0.0019960
        k(  196) = (   0.3416667   0.3166667   0.0000000), wk =   0.0019960
        k(  197) = (   0.3400000   0.3200000   0.0000000), wk =   0.0019960
        k(  198) = (   0.3383333   0.3233333   0.0000000), wk =   0.0019960
        k(  199) = (   0.3366667   0.3266667   0.0000000), wk =   0.0019960
        k(  200) = (   0.3350000   0.3300000   0.0000000), wk =   0.0019960
        k(  201) = (   0.3333333   0.3333333   0.0000000), wk =   0.0019960
        k(  202) = (   0.3300000   0.3350000   0.0000000), wk =   0.0019960
        k(  203) = (   0.3266667   0.3366667   0.0000000), wk =   0.0019960
        k(  204) = (   0.3233333   0.3383333   0.0000000), wk =   0.0019960
        k(  205) = (   0.3200000   0.3400000   0.0000000), wk =   0.0019960
        k(  206) = (   0.3166667   0.3416667   0.0000000), wk =   0.0019960
        k(  207) = (   0.3133333   0.3433333   0.0000000), wk =   0.0019960
        k(  208) = (   0.3100000   0.3450000   0.0000000), wk =   0.0019960
        k(  209) = (   0.3066667   0.3466667   0.0000000), wk =   0.0019960
        k(  210) = (   0.3033333   0.3483333   0.0000000), wk =   0.0019960
        k(  211) = (   0.3000000   0.3500000   0.0000000), wk =   0.0019960
        k(  212) = (   0.2966667   0.3516667   0.0000000), wk =   0.0019960
        k(  213) = (   0.2933333   0.3533333   0.0000000), wk =   0.0019960
        k(  214) = (   0.2900000   0.3550000   0.0000000), wk =   0.0019960
        k(  215) = (   0.2866667   0.3566667   0.0000000), wk =   0.0019960
        k(  216) = (   0.2833333   0.3583333   0.0000000), wk =   0.0019960
        k(  217) = (   0.2800000   0.3600000   0.0000000), wk =   0.0019960
        k(  218) = (   0.2766667   0.3616667   0.0000000), wk =   0.0019960
        k(  219) = (   0.2733333   0.3633333   0.0000000), wk =   0.0019960
        k(  220) = (   0.2700000   0.3650000   0.0000000), wk =   0.0019960
        k(  221) = (   0.2666667   0.3666667   0.0000000), wk =   0.0019960
        k(  222) = (   0.2633333   0.3683333   0.0000000), wk =   0.0019960
        k(  223) = (   0.2600000   0.3700000   0.0000000), wk =   0.0019960
        k(  224) = (   0.2566667   0.3716667   0.0000000), wk =   0.0019960
        k(  225) = (   0.2533333   0.3733333   0.0000000), wk =   0.0019960
        k(  226) = (   0.2500000   0.3750000   0.0000000), wk =   0.0019960
        k(  227) = (   0.2466667   0.3766667   0.0000000), wk =   0.0019960
        k(  228) = (   0.2433333   0.3783333   0.0000000), wk =   0.0019960
        k(  229) = (   0.2400000   0.3800000   0.0000000), wk =   0.0019960
        k(  230) = (   0.2366667   0.3816667   0.0000000), wk =   0.0019960
        k(  231) = (   0.2333333   0.3833333   0.0000000), wk =   0.0019960
        k(  232) = (   0.2300000   0.3850000   0.0000000), wk =   0.0019960
        k(  233) = (   0.2266667   0.3866667   0.0000000), wk =   0.0019960
        k(  234) = (   0.2233333   0.3883333   0.0000000), wk =   0.0019960
        k(  235) = (   0.2200000   0.3900000   0.0000000), wk =   0.0019960
        k(  236) = (   0.2166667   0.3916667   0.0000000), wk =   0.0019960
        k(  237) = (   0.2133333   0.3933333   0.0000000), wk =   0.0019960
        k(  238) = (   0.2100000   0.3950000   0.0000000), wk =   0.0019960
        k(  239) = (   0.2066667   0.3966667   0.0000000), wk =   0.0019960
        k(  240) = (   0.2033333   0.3983333   0.0000000), wk =   0.0019960
        k(  241) = (   0.2000000   0.4000000   0.0000000), wk =   0.0019960
        k(  242) = (   0.1966667   0.4016667   0.0000000), wk =   0.0019960
        k(  243) = (   0.1933333   0.4033333   0.0000000), wk =   0.0019960
        k(  244) = (   0.1900000   0.4050000   0.0000000), wk =   0.0019960
        k(  245) = (   0.1866667   0.4066667   0.0000000), wk =   0.0019960
        k(  246) = (   0.1833333   0.4083333   0.0000000), wk =   0.0019960
        k(  247) = (   0.1800000   0.4100000   0.0000000), wk =   0.0019960
        k(  248) = (   0.1766667   0.4116667   0.0000000), wk =   0.0019960
        k(  249) = (   0.1733333   0.4133333   0.0000000), wk =   0.0019960
        k(  250) = (   0.1700000   0.4150000   0.0000000), wk =   0.0019960
        k(  251) = (   0.1666667   0.4166667   0.0000000), wk =   0.0019960
        k(  252) = (   0.1633333   0.4183333   0.0000000), wk =   0.0019960
        k(  253) = (   0.1600000   0.4200000   0.0000000), wk =   0.0019960
        k(  254) = (   0.1566667   0.4216667   0.0000000), wk =   0.0019960
        k(  255) = (   0.1533333   0.4233333   0.0000000), wk =   0.0019960
        k(  256) = (   0.1500000   0.4250000   0.0000000), wk =   0.0019960
        k(  257) = (   0.1466667   0.4266667   0.0000000), wk =   0.0019960
        k(  258) = (   0.1433333   0.4283333   0.0000000), wk =   0.0019960
        k(  259) = (   0.1400000   0.4300000   0.0000000), wk =   0.0019960
        k(  260) = (   0.1366667   0.4316667   0.0000000), wk =   0.0019960
        k(  261) = (   0.1333333   0.4333333   0.0000000), wk =   0.0019960
        k(  262) = (   0.1300000   0.4350000   0.0000000), wk =   0.0019960
        k(  263) = (   0.1266667   0.4366667   0.0000000), wk =   0.0019960
        k(  264) = (   0.1233333   0.4383333   0.0000000), wk =   0.0019960
        k(  265) = (   0.1200000   0.4400000   0.0000000), wk =   0.0019960
        k(  266) = (   0.1166667   0.4416667   0.0000000), wk =   0.0019960
        k(  267) = (   0.1133333   0.4433333   0.0000000), wk =   0.0019960
        k(  268) = (   0.1100000   0.4450000   0.0000000), wk =   0.0019960
        k(  269) = (   0.1066667   0.4466667   0.0000000), wk =   0.0019960
        k(  270) = (   0.1033333   0.4483333   0.0000000), wk =   0.0019960
        k(  271) = (   0.1000000   0.4500000   0.0000000), wk =   0.0019960
        k(  272) = (   0.0966667   0.4516667   0.0000000), wk =   0.0019960
        k(  273) = (   0.0933333   0.4533333   0.0000000), wk =   0.0019960
        k(  274) = (   0.0900000   0.4550000   0.0000000), wk =   0.0019960
        k(  275) = (   0.0866667   0.4566667   0.0000000), wk =   0.0019960
        k(  276) = (   0.0833333   0.4583333   0.0000000), wk =   0.0019960
        k(  277) = (   0.0800000   0.4600000   0.0000000), wk =   0.0019960
        k(  278) = (   0.0766667   0.4616667   0.0000000), wk =   0.0019960
        k(  279) = (   0.0733333   0.4633333   0.0000000), wk =   0.0019960
        k(  280) = (   0.0700000   0.4650000   0.0000000), wk =   0.0019960
        k(  281) = (   0.0666667   0.4666667   0.0000000), wk =   0.0019960
        k(  282) = (   0.0633333   0.4683333   0.0000000), wk =   0.0019960
        k(  283) = (   0.0600000   0.4700000   0.0000000), wk =   0.0019960
        k(  284) = (   0.0566667   0.4716667   0.0000000), wk =   0.0019960
        k(  285) = (   0.0533333   0.4733333   0.0000000), wk =   0.0019960
        k(  286) = (   0.0500000   0.4750000   0.0000000), wk =   0.0019960
        k(  287) = (   0.0466667   0.4766667   0.0000000), wk =   0.0019960
        k(  288) = (   0.0433333   0.4783333   0.0000000), wk =   0.0019960
        k(  289) = (   0.0400000   0.4800000   0.0000000), wk =   0.0019960
        k(  290) = (   0.0366667   0.4816667   0.0000000), wk =   0.0019960
        k(  291) = (   0.0333333   0.4833333   0.0000000), wk =   0.0019960
        k(  292) = (   0.0300000   0.4850000   0.0000000), wk =   0.0019960
        k(  293) = (   0.0266667   0.4866667   0.0000000), wk =   0.0019960
        k(  294) = (   0.0233333   0.4883333   0.0000000), wk =   0.0019960
        k(  295) = (   0.0200000   0.4900000   0.0000000), wk =   0.0019960
        k(  296) = (   0.0166667   0.4916667   0.0000000), wk =   0.0019960
        k(  297) = (   0.0133333   0.4933333   0.0000000), wk =   0.0019960
        k(  298) = (   0.0100000   0.4950000   0.0000000), wk =   0.0019960
        k(  299) = (   0.0066667   0.4966667   0.0000000), wk =   0.0019960
        k(  300) = (   0.0033333   0.4983333   0.0000000), wk =   0.0019960
        k(  301) = (   0.0000000   0.5000000   0.0000000), wk =   0.0019960
        k(  302) = (   0.0066667   0.5016667   0.0000000), wk =   0.0019960
        k(  303) = (   0.0133333   0.5033333   0.0000000), wk =   0.0019960
        k(  304) = (   0.0200000   0.5050000   0.0000000), wk =   0.0019960
        k(  305) = (   0.0266667   0.5066667   0.0000000), wk =   0.0019960
        k(  306) = (   0.0333333   0.5083333   0.0000000), wk =   0.0019960
        k(  307) = (   0.0400000   0.5100000   0.0000000), wk =   0.0019960
        k(  308) = (   0.0466667   0.5116667   0.0000000), wk =   0.0019960
        k(  309) = (   0.0533333   0.5133333   0.0000000), wk =   0.0019960
        k(  310) = (   0.0600000   0.5150000   0.0000000), wk =   0.0019960
        k(  311) = (   0.0666667   0.5166667   0.0000000), wk =   0.0019960
        k(  312) = (   0.0733333   0.5183333   0.0000000), wk =   0.0019960
        k(  313) = (   0.0800000   0.5200000   0.0000000), wk =   0.0019960
        k(  314) = (   0.0866667   0.5216667   0.0000000), wk =   0.0019960
        k(  315) = (   0.0933333   0.5233333   0.0000000), wk =   0.0019960
        k(  316) = (   0.1000000   0.5250000   0.0000000), wk =   0.0019960
        k(  317) = (   0.1066667   0.5266667   0.0000000), wk =   0.0019960
        k(  318) = (   0.1133333   0.5283333   0.0000000), wk =   0.0019960
        k(  319) = (   0.1200000   0.5300000   0.0000000), wk =   0.0019960
        k(  320) = (   0.1266667   0.5316667   0.0000000), wk =   0.0019960
        k(  321) = (   0.1333333   0.5333333   0.0000000), wk =   0.0019960
        k(  322) = (   0.1400000   0.5350000   0.0000000), wk =   0.0019960
        k(  323) = (   0.1466667   0.5366667   0.0000000), wk =   0.0019960
        k(  324) = (   0.1533333   0.5383333   0.0000000), wk =   0.0019960
        k(  325) = (   0.1600000   0.5400000   0.0000000), wk =   0.0019960
        k(  326) = (   0.1666667   0.5416667   0.0000000), wk =   0.0019960
        k(  327) = (   0.1733333   0.5433333   0.0000000), wk =   0.0019960
        k(  328) = (   0.1800000   0.5450000   0.0000000), wk =   0.0019960
        k(  329) = (   0.1866667   0.5466667   0.0000000), wk =   0.0019960
        k(  330) = (   0.1933333   0.5483333   0.0000000), wk =   0.0019960
        k(  331) = (   0.2000000   0.5500000   0.0000000), wk =   0.0019960
        k(  332) = (   0.2066667   0.5516667   0.0000000), wk =   0.0019960
        k(  333) = (   0.2133333   0.5533333   0.0000000), wk =   0.0019960
        k(  334) = (   0.2200000   0.5550000   0.0000000), wk =   0.0019960
        k(  335) = (   0.2266667   0.5566667   0.0000000), wk =   0.0019960
        k(  336) = (   0.2333333   0.5583333   0.0000000), wk =   0.0019960
        k(  337) = (   0.2400000   0.5600000   0.0000000), wk =   0.0019960
        k(  338) = (   0.2466667   0.5616667   0.0000000), wk =   0.0019960
        k(  339) = (   0.2533333   0.5633333   0.0000000), wk =   0.0019960
        k(  340) = (   0.2600000   0.5650000   0.0000000), wk =   0.0019960
        k(  341) = (   0.2666667   0.5666667   0.0000000), wk =   0.0019960
        k(  342) = (   0.2733333   0.5683333   0.0000000), wk =   0.0019960
        k(  343) = (   0.2800000   0.5700000   0.0000000), wk =   0.0019960
        k(  344) = (   0.2866667   0.5716667   0.0000000), wk =   0.0019960
        k(  345) = (   0.2933333   0.5733333   0.0000000), wk =   0.0019960
        k(  346) = (   0.3000000   0.5750000   0.0000000), wk =   0.0019960
        k(  347) = (   0.3066667   0.5766667   0.0000000), wk =   0.0019960
        k(  348) = (   0.3133333   0.5783333   0.0000000), wk =   0.0019960
        k(  349) = (   0.3200000   0.5800000   0.0000000), wk =   0.0019960
        k(  350) = (   0.3266667   0.5816667   0.0000000), wk =   0.0019960
        k(  351) = (   0.3333333   0.5833333   0.0000000), wk =   0.0019960
        k(  352) = (   0.3400000   0.5850000   0.0000000), wk =   0.0019960
        k(  353) = (   0.3466667   0.5866667   0.0000000), wk =   0.0019960
        k(  354) = (   0.3533333   0.5883333   0.0000000), wk =   0.0019960
        k(  355) = (   0.3600000   0.5900000   0.0000000), wk =   0.0019960
        k(  356) = (   0.3666667   0.5916667   0.0000000), wk =   0.0019960
        k(  357) = (   0.3733333   0.5933333   0.0000000), wk =   0.0019960
        k(  358) = (   0.3800000   0.5950000   0.0000000), wk =   0.0019960
        k(  359) = (   0.3866667   0.5966667   0.0000000), wk =   0.0019960
        k(  360) = (   0.3933333   0.5983333   0.0000000), wk =   0.0019960
        k(  361) = (   0.4000000   0.6000000   0.0000000), wk =   0.0019960
        k(  362) = (   0.4066667   0.6016667   0.0000000), wk =   0.0019960
        k(  363) = (   0.4133333   0.6033333   0.0000000), wk =   0.0019960
        k(  364) = (   0.4200000   0.6050000   0.0000000), wk =   0.0019960
        k(  365) = (   0.4266667   0.6066667   0.0000000), wk =   0.0019960
        k(  366) = (   0.4333333   0.6083333   0.0000000), wk =   0.0019960
        k(  367) = (   0.4400000   0.6100000   0.0000000), wk =   0.0019960
        k(  368) = (   0.4466667   0.6116667   0.0000000), wk =   0.0019960
        k(  369) = (   0.4533333   0.6133333   0.0000000), wk =   0.0019960
        k(  370) = (   0.4600000   0.6150000   0.0000000), wk =   0.0019960
        k(  371) = (   0.4666667   0.6166667   0.0000000), wk =   0.0019960
        k(  372) = (   0.4733333   0.6183333   0.0000000), wk =   0.0019960
        k(  373) = (   0.4800000   0.6200000   0.0000000), wk =   0.0019960
        k(  374) = (   0.4866667   0.6216667   0.0000000), wk =   0.0019960
        k(  375) = (   0.4933333   0.6233333   0.0000000), wk =   0.0019960
        k(  376) = (   0.5000000   0.6250000   0.0000000), wk =   0.0019960
        k(  377) = (   0.5066667   0.6266667   0.0000000), wk =   0.0019960
        k(  378) = (   0.5133333   0.6283333   0.0000000), wk =   0.0019960
        k(  379) = (   0.5200000   0.6300000   0.0000000), wk =   0.0019960
        k(  380) = (   0.5266667   0.6316667   0.0000000), wk =   0.0019960
        k(  381) = (   0.5333333   0.6333333   0.0000000), wk =   0.0019960
        k(  382) = (   0.5400000   0.6350000   0.0000000), wk =   0.0019960
        k(  383) = (   0.5466667   0.6366667   0.0000000), wk =   0.0019960
[...]
     3.9530   3.9542   4.6209   4.6949   4.7605   4.7774   5.7014   5.9848
     6.0153   6.1262   6.7532   6.7600   6.9276   7.0981   7.4970   7.7009
     8.9910   9.0102   9.1766   9.2340  10.5654  10.5861  11.2496  11.3207

          k = 0.1333 0.2309 0.0000 ( 18081 PWs)   bands (ev):

   -79.5347 -79.5347 -50.9604 -50.9588 -41.2454 -41.2453 -41.1636 -41.1576
   -35.0508 -35.0507 -35.0385 -35.0383 -34.9810 -34.9810 -32.8204 -32.8199
   -32.8130 -32.8127 -32.7747 -32.7746 -32.7406 -32.7406 -19.6449 -19.6179
   -18.5215 -18.5182 -11.1635 -11.1295 -10.0792 -10.0524  -9.2333  -9.1606
    -8.7622  -8.6708  -8.0465  -7.8542  -7.0168  -6.9532  -6.4234  -6.2986
    -3.7244  -3.5349  -3.1257  -3.1191  -2.8819  -2.7491  -1.6412  -1.4565
     0.8202   0.8432   0.9975   1.0008   2.3056   2.3354   3.3664   3.5778
     4.0272   4.0303   4.5764   4.6681   4.7133   4.7403   5.7371   5.8991
     5.9111   6.1489   6.7584   6.7714   7.0621   7.2099   7.5256   7.6670
     8.9597   8.9718   9.1517   9.2101  10.5242  10.5447  11.1471  11.2685

          k = 0.1267 0.2194 0.0000 ( 18077 PWs)   bands (ev):

   -79.5353 -79.5353 -50.9580 -50.9566 -41.2404 -41.2400 -41.1581 -41.1523
   -35.0508 -35.0507 -35.0385 -35.0383 -34.9810 -34.9810 -32.8205 -32.8201
   -32.8128 -32.8126 -32.7746 -32.7745 -32.7407 -32.7406 -19.7131 -19.6898
   -18.5474 -18.5445 -11.2222 -11.1952  -9.9954  -9.9612  -9.1570  -9.0904
    -8.6498  -8.5663  -8.0620  -7.8868  -7.0063  -6.9445  -6.3570  -6.2520
    -3.6820  -3.5193  -3.1331  -3.1272  -2.9096  -2.7690  -1.7305  -1.5416
     0.7314   0.7524   0.9102   0.9130   2.2161   2.2453   3.3382   3.5355
     4.1029   4.1089   4.5334   4.6346   4.6669   4.6989   5.7180   5.8101
     5.8537   6.1583   6.7698   6.7876   7.1440   7.1918   7.6905   7.7073
     8.9336   8.9371   9.1323   9.1962  10.4769  10.4973  11.0480  11.2125

          k = 0.1200 0.2078 0.0000 ( 18089 PWs)   bands (ev):

   -79.5359 -79.5359 -50.9557 -50.9545 -41.2360 -41.2352 -41.1521 -41.1467
   -35.0508 -35.0507 -35.0385 -35.0383 -34.9810 -34.9809 -32.8206 -32.8203
   -32.8127 -32.8125 -32.7745 -32.7745 -32.7407 -32.7407 -19.7793 -19.7594
   -18.5725 -18.5701 -11.2843 -11.2629  -9.9046  -9.8650  -9.0814  -9.0217
    -8.5344  -8.4600  -8.0837  -7.9252  -6.9990  -6.9394  -6.2890  -6.2024
    -3.6356  -3.5025  -3.1417  -3.1197  -2.9316  -2.7851  -1.8210  -1.6288
     0.6442   0.6634   0.8260   0.8284   2.0968   2.1209   3.3405   3.5186
     4.1752   4.1857   4.4925   4.5931   4.6218   4.6523   5.6519   5.7170
     5.8451   6.1512   6.7876   6.8100   7.1381   7.1560   7.8342   7.8949
     8.9113   8.9169   9.1178   9.1948  10.4244  10.4450  10.9553  11.1531

          k = 0.1133 0.1963 0.0000 ( 18109 PWs)   bands (ev):

   -79.5365 -79.5365 -50.9535 -50.9524 -41.2320 -41.2310 -41.1457 -41.1408
   -35.0508 -35.0507 -35.0385 -35.0383 -34.9809 -34.9809 -32.8208 -32.8205
   -32.8126 -32.8124 -32.7744 -32.7744 -32.7407 -32.7407 -19.8432 -19.8265
   -18.5968 -18.5947 -11.3482 -11.3313  -9.8089  -9.7655  -9.0056  -8.9530
    -8.4186  -8.3549  -8.1093  -7.9676  -6.9948  -6.9377  -6.2214  -6.1513
    -3.5861  -3.4842  -3.1452  -3.1041  -2.9470  -2.7969  -1.9119  -1.7175
     0.5586   0.5761   0.7452   0.7472   1.9548   1.9726   3.3653   3.5223
     4.2355   4.2543   4.4564   4.5408   4.5809   4.6004   5.5842   5.6379
     5.8335   6.1236   6.8109   6.8377   7.0918   7.1330   8.0082   8.0927
     8.8987   8.9130   9.1097   9.2104  10.3681  10.3893  10.8707  11.0752

          k = 0.1067 0.1848 0.0000 ( 18093 PWs)   bands (ev):

   -79.5370 -79.5370 -50.9513 -50.9504 -41.2284 -41.2274 -41.1391 -41.1347
   -35.0508 -35.0507 -35.0385 -35.0384 -34.9809 -34.9809 -32.8209 -32.8207
   -32.8124 -32.8122 -32.7744 -32.7743 -32.7408 -32.7408 -19.9048 -19.8908
   -18.6201 -18.6183 -11.4125 -11.3991  -9.7100  -9.6641  -8.9291  -8.8835
    -8.3048  -8.2573  -8.1323  -8.0118  -6.9937  -6.9394  -6.1557  -6.1002
    -3.5339  -3.4633  -3.1441  -3.0820  -2.9551  -2.8043  -2.0025  -1.8068
     0.4744   0.4903   0.6681   0.6697   1.7981   1.8101   3.4051   3.5409
     4.2672   4.3038   4.4329   4.4816   4.5445   4.5448   5.5356   5.5815
     5.8057   6.0733   6.8377   6.8696   7.0636   7.1053   8.1917   8.2655
     8.9007   8.9233   9.1135   9.2509  10.3097  10.3319  10.7953  11.0037

          k = 0.1000 0.1732 0.0000 ( 18107 PWs)   bands (ev):

   -79.5376 -79.5376 -50.9492 -50.9484 -41.2253 -41.2243 -41.1322 -41.1284
   -35.0507 -35.0507 -35.0385 -35.0384 -34.9809 -34.9809 -32.8210 -32.8208
   -32.8123 -32.8121 -32.7743 -32.7742 -32.7408 -32.7408 -19.9637 -19.9521
   -18.6424 -18.6409 -11.4760 -11.4654  -9.6091  -9.5619  -8.8514  -8.8128
    -8.2085  -8.1965  -8.1116  -8.0545  -6.9957  -6.9445  -6.0932  -6.0505
    -3.4794  -3.4390  -3.1395  -3.0551  -2.9553  -2.8070  -2.0920  -1.8960
     0.3911   0.4055   0.5947   0.5961   1.6333   1.6408   3.4540   3.5695
     4.2516   4.3064   4.4302   4.4377   4.4890   4.5133   5.5174   5.5564
     5.7596   6.0016   6.8660   6.9040   7.0543   7.0845   8.3613   8.4024
     8.9140   8.9453   9.1422   9.3262  10.2509  10.2742  10.7301  10.9398

          k = 0.0933 0.1617 0.0000 ( 18099 PWs)   bands (ev):

   -79.5381 -79.5381 -50.9472 -50.9465 -41.2226 -41.2217 -41.1253 -41.1220
   -35.0507 -35.0507 -35.0385 -35.0384 -34.9809 -34.9809 -32.8212 -32.8210
   -32.8121 -32.8120 -32.7742 -32.7741 -32.7409 -32.7409 -20.0198 -20.0103
   -18.6636 -18.6624 -11.5380 -11.5297  -9.5075  -9.4600  -8.7724  -8.7407
    -8.2286  -8.1286  -8.0606  -8.0270  -7.0007  -6.9528  -6.0351  -6.0032
    -3.4229  -3.4103  -3.1318  -3.0251  -2.9477  -2.8050  -2.1795  -1.9842
     0.3084   0.3214   0.5252   0.5264   1.4660   1.4703   3.5076   3.6035
     4.1937   4.2393   4.4247   4.4289   4.4494   4.4872   5.5360   5.5688
     5.6969   5.9131   6.8936   6.9395   7.0595   7.0721   8.5013   8.5016
     8.9316   8.9749   9.2125   9.4402  10.1933  10.2179  10.6756  10.8834

          k = 0.0867 0.1501 0.0000 ( 18111 PWs)   bands (ev):

   -79.5386 -79.5386 -50.9452 -50.9447 -41.2203 -41.2195 -41.1183 -41.1156
   -35.0507 -35.0507 -35.0385 -35.0384 -34.9809 -34.9809 -32.8213 -32.8211
   -32.8120 -32.8119 -32.7741 -32.7741 -32.7409 -32.7409 -20.0728 -20.0653
   -18.6836 -18.6827 -11.5978 -11.5914  -9.4064  -9.3594  -8.6921  -8.6676
    -8.2608  -8.1586  -7.9728  -7.9352  -7.0088  -6.9645  -5.9821  -5.9591
    -3.3767  -3.3647  -3.1216  -2.9936  -2.9329  -2.7985  -2.2641  -2.0706
     0.2258   0.2374   0.4599   0.4608   1.3006   1.3027   3.5622   3.6391
     4.1075   4.1369   4.3916   4.4231   4.4400   4.4683   5.5913   5.6192
     5.6219   5.8136   6.9187   6.9745   7.0653   7.0725   8.5699   8.6032
     8.9539   9.0117   9.3279   9.5846  10.1385  10.1647  10.6325  10.8338

          k = 0.0800 0.1386 0.0000 ( 18115 PWs)   bands (ev):

   -79.5390 -79.5390 -50.9434 -50.9430 -41.2183 -41.2176 -41.1115 -41.1093
   -35.0507 -35.0506 -35.0385 -35.0385 -34.9809 -34.9809 -32.8214 -32.8213
   -32.8119 -32.8118 -32.7740 -32.7740 -32.7409 -32.7409 -20.1227 -20.1167
   -18.7024 -18.7017 -11.6549 -11.6500  -9.3069  -9.2613  -8.6108  -8.5941
    -8.2943  -8.1988  -7.8782  -7.8469  -7.0199  -6.9794  -5.9346  -5.9187
    -3.3382  -3.3051  -3.1088  -2.9614  -2.9119  -2.7882  -2.3447  -2.1543
     0.1425   0.1528   0.3988   0.3995   1.1409   1.1416   3.6128   3.6715
     4.0035   4.0209   4.3649   4.4076   4.4267   4.4580   5.5369   5.6802
     5.6954   5.7157   6.9397   7.0073   7.0599   7.0876   8.6157   8.6666
     8.9925   9.0593   9.4738   9.7446  10.0884  10.1169  10.6009  10.7898

          k = 0.0733 0.1270 0.0000 ( 18131 PWs)   bands (ev):

   -79.5395 -79.5395 -50.9417 -50.9414 -41.2166 -41.2160 -41.1049 -41.1032
   -35.0507 -35.0506 -35.0385 -35.0385 -34.9808 -34.9808 -32.8215 -32.8214
   -32.8118 -32.8117 -32.7740 -32.7739 -32.7410 -32.7410 -20.1692 -20.1646
   -18.7199 -18.7194 -11.7088 -11.7051  -9.2102  -9.1668  -8.5285  -8.5215
    -8.3268  -8.2359  -7.7891  -7.7643  -7.0340  -6.9975  -5.8928  -5.8824
    -3.2951  -3.2447  -3.0932  -2.9292  -2.8864  -2.7751  -2.4201  -2.2343
     0.0581   0.0671   0.3420   0.3426   0.9901   0.9902   3.6511   3.6921
     3.8943   3.9048   4.3486   4.3848   4.4092   4.4570   5.4489   5.5995
     5.7932   5.8144   6.9549   7.0362   7.0524   7.1006   8.6451   8.6968
     9.0557   9.1208   9.6302   9.9054  10.0474  10.0785  10.5808  10.7477

          k = 0.0667 0.1155 0.0000 ( 18147 PWs)   bands (ev):

   -79.5399 -79.5399 -50.9401 -50.9399 -41.2151 -41.2147 -41.0987 -41.0974
   -35.0507 -35.0506 -35.0385 -35.0385 -34.9808 -34.9808 -32.8216 -32.8216
   -32.8117 -32.8116 -32.7739 -32.7739 -32.7410 -32.7410 -20.2122 -20.2087
   -18.7361 -18.7357 -11.7591 -11.7565  -9.1175  -9.0771  -8.4538  -8.4459
    -8.3570  -8.2649  -7.7072  -7.6884  -7.0510  -7.0188  -5.8567  -5.8503
    -3.2484  -3.1846  -3.0748  -2.8976  -2.8576  -2.7608  -2.4886  -2.3096
    -0.0280  -0.0203   0.2897   0.2902   0.8506   0.8511   3.6504   3.6719
     3.8094   3.8202   4.3372   4.3577   4.3979   4.4669   5.3607   5.4940
     5.9243   5.9433   6.9622   7.0375   7.0628   7.1097   8.6625   8.7054
     9.1401   9.1958   9.7767   9.9915  10.0594  10.0847  10.5713  10.7014

          k = 0.0600 0.1039 0.0000 ( 18155 PWs)   bands (ev):

   -79.5403 -79.5403 -50.9386 -50.9385 -41.2139 -41.2135 -41.0928 -41.0918
   -35.0506 -35.0506 -35.0385 -35.0385 -34.9808 -34.9808 -32.8217 -32.8217
   -32.8116 -32.8115 -32.7738 -32.7738 -32.7410 -32.7410 -20.2515 -20.2490
   -18.7509 -18.7506 -11.8056 -11.8037  -9.0302  -8.9935  -8.4039  -8.3850
    -8.3621  -8.2720  -7.6336  -7.6201  -7.0706  -7.0429  -5.8259  -5.8223
    -3.1993  -3.1261  -3.0537  -2.8669  -2.8269  -2.7478  -2.5476  -2.3791
    -0.1156  -0.1092   0.2421   0.2424   0.7252   0.7258   3.5728   3.5806
     3.7892   3.7996   4.3199   4.3289   4.4073   4.4883   5.2758   5.3929
     6.0678   6.0855   6.9596   7.0172   7.0828   7.1152   8.6718   8.7035
     9.2357   9.2793   9.8806   9.9744  10.0876  10.2268  10.5703  10.6611

          k = 0.0533 0.0924 0.0000 ( 18151 PWs)   bands (ev):

   -79.5406 -79.5406 -50.9373 -50.9372 -41.2128 -41.2126 -41.0874 -41.0867
   -35.0506 -35.0506 -35.0385 -35.0385 -34.9808 -34.9808 -32.8218 -32.8218
   -32.8115 -32.8114 -32.7738 -32.7738 -32.7411 -32.7411 -20.2871 -20.2853
   -18.7643 -18.7641 -11.8479 -11.8466  -8.9497  -8.9175  -8.4070  -8.3922
    -8.2807  -8.2370  -7.5689  -7.5598  -7.0927  -7.0695  -5.8002  -5.7984
    -3.1493  -3.0714  -3.0299  -2.8392  -2.7954  -2.7392  -2.5925  -2.4415
    -0.2042  -0.1991   0.1991   0.1993   0.6150   0.6157   3.4609   3.4642
     3.7947   3.8004   4.2962   4.3003   4.4384   4.5200   5.1971   5.2985
     6.2187   6.2357   6.9460   6.9891   7.0986   7.1185   8.6759   8.6976
     9.3314   9.3625   9.9241   9.9684  10.1805  10.3612  10.5707  10.6327

          k = 0.0467 0.0808 0.0000 ( 18153 PWs)   bands (ev):

   -79.5409 -79.5409 -50.9361 -50.9361 -41.2120 -41.2118 -41.0824 -41.0820
   -35.0506 -35.0506 -35.0385 -35.0385 -34.9808 -34.9808 -32.8219 -32.8219
   -32.8114 -32.8114 -32.7737 -32.7737 -32.7411 -32.7411 -20.3187 -20.3175
   -18.7762 -18.7761 -11.8858 -11.8849  -8.8777  -8.8508  -8.4244  -8.4032
    -8.2000  -8.1749  -7.5138  -7.5084  -7.1165  -7.0980  -5.7790  -5.7783
    -3.1002  -3.0247  -3.0026  -2.8204  -2.7636  -2.7352  -2.6177  -2.4953
    -0.2921  -0.2882   0.1608   0.1610   0.5205   0.5210   3.3468   3.3482
     3.7986   3.8010   4.2712   4.2732   4.4840   4.5589   5.1276   5.2133
     6.3723   6.3892   6.9218   6.9543   7.1103   7.1209   8.6770   8.6908
     9.4144   9.4339   9.9561   9.9867  10.2924  10.4782  10.5570  10.6082

          k = 0.0400 0.0693 0.0000 ( 18153 PWs)   bands (ev):

   -79.5412 -79.5412 -50.9351 -50.9351 -41.2113 -41.2112 -41.0781 -41.0778
   -35.0506 -35.0506 -35.0385 -35.0385 -34.9808 -34.9808 -32.8220 -32.8220
   -32.8113 -32.8113 -32.7737 -32.7737 -32.7411 -32.7411 -20.3464 -20.3457
   -18.7866 -18.7865 -11.9190 -11.9184  -8.8158  -8.7950  -8.4356  -8.4167
    -8.1217  -8.1061  -7.4694  -7.4665  -7.1410  -7.1270  -5.7619  -5.7617
    -3.0539  -2.9909  -2.9705  -2.8216  -2.7322  -2.7243  -2.6242  -2.5389
    -0.3771  -0.3744   0.1275   0.1276   0.4412   0.4417   3.2394   3.2400
     3.7976   3.7984   4.2475   4.2485   4.5370   4.6005   5.0701   5.1393
     6.5230   6.5407   6.8896   6.9157   7.1185   7.1230   8.6763   8.6844
     9.4731   9.4834  10.0088  10.0350  10.3894  10.5237  10.5808  10.5893

          k = 0.0333 0.0577 0.0000 ( 18155 PWs)   bands (ev):

   -79.5414 -79.5414 -50.9342 -50.9342 -41.2107 -41.2107 -41.0743 -41.0742
   -35.0506 -35.0506 -35.0385 -35.0385 -34.9808 -34.9808 -32.8220 -32.8220
   -32.8113 -32.8112 -32.7737 -32.7736 -32.7411 -32.7411 -20.3700 -20.3695
   -18.7955 -18.7954 -11.9474 -11.9471  -8.7658  -8.7513  -8.4399  -8.4261
    -8.0470  -8.0375  -7.4368  -7.4354  -7.1644  -7.1548  -5.7483  -5.7483
    -3.0120  -2.9653  -2.9420  -2.8399  -2.7019  -2.7017  -2.6208  -2.5708
    -0.4564  -0.4546   0.0990   0.0991   0.3764   0.3767   3.1431   3.1433
     3.7929   3.7930   4.2264   4.2269   4.5904   4.6390   5.0275   5.0791
     6.6606   6.6811   6.8571   6.8812   7.1242   7.1249   8.6745   8.6789
     9.5046   9.5092  10.0856  10.1091  10.4441  10.4920  10.5986  10.6397

          k = 0.0267 0.0462 0.0000 ( 18155 PWs)   bands (ev):

   -79.5416 -79.5416 -50.9335 -50.9335 -41.2103 -41.2102 -41.0712 -41.0711
   -35.0506 -35.0506 -35.0385 -35.0385 -34.9808 -34.9808 -32.8221 -32.8221
   -32.8112 -32.8112 -32.7736 -32.7736 -32.7411 -32.7411 -20.3894 -20.3892
   -18.8027 -18.8027 -11.9709 -11.9707  -8.7286  -8.7201  -8.4378  -8.4296
    -7.9777  -7.9723  -7.4172  -7.4166  -7.1842  -7.1785  -5.7379  -5.7378
    -2.9763  -2.9441  -2.9234  -2.8622  -2.6755  -2.6730  -2.6143  -2.5906
    -0.5268  -0.5258   0.0756   0.0757   0.3250   0.3251   3.0607   3.0608
     3.7863   3.7864   4.2085   4.2087   4.6372   4.6689   5.0020   5.0353
     6.7481   6.7648   6.8680   6.8855   7.1268   7.1279   8.6723   8.6744
     9.5157   9.5174  10.1714  10.1923  10.4405  10.4489  10.6174  10.6373

          k = 0.0200 0.0346 0.0000 ( 18167 PWs)   bands (ev):

   -79.5418 -79.5418 -50.9329 -50.9329 -41.2099 -41.2099 -41.0688 -41.0687
   -35.0506 -35.0506 -35.0385 -35.0385 -34.9808 -34.9808 -32.8221 -32.8221
   -32.8112 -32.8112 -32.7736 -32.7736 -32.7411 -32.7411 -20.4046 -20.4045
   -18.8084 -18.8084 -11.9892 -11.9892  -8.7038  -8.6999  -8.4314  -8.4276
    -7.9162  -7.9136  -7.4109  -7.4105  -7.1982  -7.1955  -5.7301  -5.7300
    -2.9482  -2.9284  -2.9130  -2.8813  -2.6505  -2.6479  -2.6082  -2.6001
    -0.5853  -0.5849   0.0573   0.0574   0.2860   0.2860   2.9944   2.9944
     3.7796   3.7797   4.1942   4.1943   4.6713   4.6872   4.9930   5.0096
     6.7454   6.7488   6.9630   6.9656   7.1288   7.1305   8.6701   8.6709
     9.5152   9.5157  10.2297  10.2457  10.4063  10.4125  10.5509  10.5565

          k = 0.0133 0.0231 0.0000 ( 18175 PWs)   bands (ev):

   -79.5419 -79.5419 -50.9325 -50.9325 -41.2097 -41.2097 -41.0670 -41.0670
   -35.0506 -35.0506 -35.0385 -35.0385 -34.9808 -34.9808 -32.8222 -32.8222
   -32.8111 -32.8111 -32.7736 -32.7736 -32.7412 -32.7412 -20.4154 -20.4154
   -18.8125 -18.8125 -12.0024 -12.0024  -8.6892  -8.6880  -8.4238  -8.4226
    -7.8661  -7.8653  -7.4150  -7.4148  -7.2057  -7.2049  -5.7247  -5.7247
    -2.9294  -2.9218  -2.9048  -2.8938  -2.6302  -2.6285  -2.6037  -2.6024
    -0.6294  -0.6292   0.0442   0.0442   0.2586   0.2586   2.9458   2.9458
     3.7740   3.7740   4.1839   4.1839   4.6904   4.6955   4.9949   5.0003
     6.7204   6.7210   7.0495   7.0500   7.1315   7.1330   8.6682   8.6685
     9.5098   9.5099  10.2089  10.2134  10.4291  10.4310  10.5197  10.5210

          k = 0.0067 0.0115 0.0000 ( 18181 PWs)   bands (ev):

   -79.5420 -79.5420 -50.9323 -50.9323 -41.2096 -41.2096 -41.0660 -41.0660
   -35.0506 -35.0506 -35.0385 -35.0385 -34.9808 -34.9808 -32.8222 -32.8222
   -32.8111 -32.8111 -32.7736 -32.7736 -32.7412 -32.7412 -20.4220 -20.4220
   -18.8149 -18.8149 -12.0104 -12.0104  -8.6821  -8.6820  -8.4181  -8.4179
    -7.8325  -7.8324  -7.4228  -7.4228  -7.2088  -7.2087  -5.7216  -5.7216
    -2.9221  -2.9213  -2.8983  -2.8970  -2.6171  -2.6167  -2.6011  -2.6011
    -0.6567  -0.6567   0.0363   0.0363   0.2424   0.2424   2.9161   2.9161
     3.7702   3.7702   4.1776   4.1776   4.6978   4.6984   4.9998   5.0005
     6.7012   6.7013   7.1018   7.1022   7.1384   7.1389   8.6670   8.6670
     9.5044   9.5044  10.1626  10.1630  10.4658  10.4658  10.5137  10.5140

          k = 0.0000 0.0000 0.0000 ( 18181 PWs)   bands (ev):

   -79.5420 -79.5420 -50.9322 -50.9322 -41.2095 -41.2095 -41.0656 -41.0656
   -35.0506 -35.0506 -35.0385 -35.0385 -34.9808 -34.9808 -32.8222 -32.8222
   -32.8111 -32.8111 -32.7736 -32.7736 -32.7412 -32.7412 -20.4242 -20.4242
   -18.8158 -18.8158 -12.0130 -12.0130  -8.6801  -8.6801  -8.4160  -8.4160
    -7.8205  -7.8205  -7.4266  -7.4266  -7.2096  -7.2096  -5.7205  -5.7205
    -2.9216  -2.9216  -2.8960  -2.8960  -2.6128  -2.6128  -2.6001  -2.6001
    -0.6660  -0.6660   0.0337   0.0337   0.2370   0.2370   2.9062   2.9062
     3.7689   3.7689   4.1755   4.1755   4.6992   4.6992   5.0019   5.0019
     6.6943   6.6943   7.1148   7.1148   7.1463   7.1463   8.6665   8.6665
     9.5021   9.5021  10.1435  10.1435  10.4747  10.4747  10.5192  10.5192

     Writing all to output data dir ./bands-bpc_100-c_18-ecut_100-k_32.save/ :
     XML data file, pseudopotentials, collected wavefunctions
 
     init_run     :      0.20s CPU      0.27s WALL (       1 calls)
     electrons    :    325.11s CPU    358.67s WALL (       1 calls)

     Called by init_run:
     wfcinit      :      0.00s CPU      0.00s WALL (       1 calls)
     wfcinit:atom :      0.14s CPU      0.14s WALL (      63 calls)
     wfcinit:wfcr :      6.11s CPU      6.45s WALL (      63 calls)
     potinit      :      0.02s CPU      0.04s WALL (       1 calls)
     hinit0       :      0.04s CPU      0.07s WALL (       1 calls)

     Called by electrons:
     c_bands      :    325.10s CPU    358.63s WALL (       1 calls)
     v_of_rho     :      0.01s CPU      0.02s WALL (       1 calls)
     v_h          :      0.00s CPU      0.00s WALL (       1 calls)
     v_xc         :      0.01s CPU      0.02s WALL (       1 calls)

     Called by c_bands:
     init_us_2    :      0.15s CPU      0.15s WALL (      63 calls)
     cegterg      :    286.99s CPU    294.04s WALL (     248 calls)

     Called by sum_band:

     Called by *egterg:
     cdiaghg      :     30.51s CPU     30.77s WALL (    4496 calls)
     cegterg:over :     30.04s CPU     31.53s WALL (    4433 calls)
     cegterg:upda :     23.17s CPU     23.36s WALL (    4433 calls)
     cegterg:last :     31.01s CPU     31.24s WALL (    2086 calls)
     h_psi        :    169.69s CPU    174.03s WALL (    4744 calls)
     g_psi        :      2.02s CPU      2.06s WALL (    4433 calls)

     Called by h_psi:
     h_psi:calbec :      9.53s CPU      9.92s WALL (    4744 calls)
     vloc_psi     :    142.72s CPU    146.31s WALL (    4744 calls)
     add_vuspsi   :     13.86s CPU     14.01s WALL (    4744 calls)

     General routines
     calbec       :      9.51s CPU      9.91s WALL (    4744 calls)
     fft          :      0.01s CPU      0.02s WALL (      13 calls)
     fftw         :    103.72s CPU    106.17s WALL (  665004 calls)
 
     Parallel routines
 
     PWSCF        :   5m27.39s CPU   6m14.97s WALL

 
   This run was terminated on:  13:44: 4   4Feb2025            

=------------------------------------------------------------------------------=
   JOB DONE.
=------------------------------------------------------------------------------=
