
     Program PWSCF v.7.3.1 starts on  6Feb2025 at  2: 6:19 

     This program is part of the open-source Quantum ESPRESSO suite
     for quantum simulation of materials; please cite
         "P. Giannozzi et al., J. Phys.:Condens. Matter 21 395502 (2009);
         "P. Giannozzi et al., J. Phys.:Condens. Matter 29 465901 (2017);
         "P. Giannozzi et al., J. Chem. Phys. 152 154105 (2020);
          URL http://www.quantum-espresso.org", 
     in publications or presentations arising from this work. More details at
     http://www.quantum-espresso.org/quote

     Parallel version (MPI & OpenMP), running on     576 processor cores
     Number of MPI processes:               576
     Threads/MPI process:                     1

     MPI processes distributed on    12 nodes
     375052 MiB available memory on the printing compute node when the environment starts
 
     Reading input from bpc_100-c_18-ecut_100-k_56.in

     Current dimensions of program PWSCF are:
     Max number of different atomic species (ntypx) = 10
     Max number of k-points (npk) =  40000
     Max angular momentum in pseudopotentials (lmaxx) =  4
 
     K-points division:     npool     =       6
     R & G space division:  proc/nbgrp/npool/nimage =      96
     wavefunctions fft division:  Y-proc x Z-proc =       8     12
     wavefunctions fft division:  task group distribution
                                  #TG    x Z-proc =       8     12
     Subspace diagonalization in iterative solution of the eigenvalue problem:
     a serial algorithm will be used

 
     Parallelization info
     --------------------
     sticks:   dense  smooth     PW     G-vecs:    dense   smooth      PW
     Min           9       9      2                 1445     1445     194
     Max          12      12      4                 1555     1555     262
     Sum        1003    1003    283               144463   144463   22021
 
     Using Pencil Decomposition
 


     bravais-lattice index     =           12
     lattice parameter (alat)  =       6.0248  a.u.
     unit-cell volume          =    1069.2648 (a.u.)^3
     number of atoms/cell      =            3
     number of atomic types    =            2
     number of electrons       =        40.00
     number of Kohn-Sham states=           80
     kinetic-energy cutoff     =     100.0000  Ry
     charge density cutoff     =     400.0000  Ry
     scf convergence threshold =      1.0E-11
     mixing beta               =       0.7000
     number of iterations used =            8  plain     mixing
     energy convergence thresh.=      1.2E-04
     force convergence thresh. =      1.0E-04
     Exchange-correlation= PBE
                           (   1   4   3   4   0   0   0)
     nstep                     =           50

     Non magnetic calculation with spin-orbit


     celldm(1)=   6.024786  celldm(2)=   1.000000  celldm(3)=   5.645855
     celldm(4)=  -0.500000  celldm(5)=   0.000000  celldm(6)=   0.000000

     crystal axes: (cart. coord. in units of alat)
               a(1) = (   1.000000   0.000000   0.000000 )  
               a(2) = (  -0.500000   0.866025   0.000000 )  
               a(3) = (   0.000000   0.000000   5.645855 )  

     reciprocal axes: (cart. coord. in units 2 pi/alat)
               b(1) = (  1.000000  0.577350  0.000000 )  
               b(2) = (  0.000000  1.154701  0.000000 )  
               b(3) = (  0.000000  0.000000  0.177121 )  


     PseudoPot. # 1 for W  read from file:
     /home/dagosta/pseudopotentials/sg15/W_ONCV_PBE_fr.upf
     MD5 check sum: db67cb0d1e4258a1e3a8a357a2b3a3f2
     Pseudo is Norm-conserving, Zval = 28.0
     Generated using ONCVPSP code by D. R. Hamann
     Using radial grid of 1396 points, 14 beta functions with: 
                l(1) =   0
                l(2) =   0
                l(3) =   1
                l(4) =   1
                l(5) =   1
                l(6) =   1
                l(7) =   2
                l(8) =   2
                l(9) =   2
               l(10) =   2
               l(11) =   3
               l(12) =   3
               l(13) =   3
               l(14) =   3

     PseudoPot. # 2 for S  read from file:
     /home/dagosta/pseudopotentials/sg15/S_ONCV_PBE_fr.upf
     MD5 check sum: 5283c4e0603dd04c7219414e5521bad4
     Pseudo is Norm-conserving, Zval =  6.0
     Generated using ONCVPSP code by D. R. Hamann
     Using radial grid of 1146 points,  6 beta functions with: 
                l(1) =   0
                l(2) =   0
                l(3) =   1
                l(4) =   1
                l(5) =   1
                l(6) =   1

     atomic species   valence    mass     pseudopotential
     W                28.00   183.84000     W ( 1.00)
     S                 6.00    32.06500     S ( 1.00)

     12 Sym. Ops. (no inversion) found


                                    s                        frac. trans.

      isym =  1     identity                                     

 cryst.   s( 1) = (     1          0          0      )
                  (     0          1          0      )
                  (     0          0          1      )

 cart.    s( 1) = (  1.0000000  0.0000000  0.0000000 )
                  (  0.0000000  1.0000000  0.0000000 )
                  (  0.0000000  0.0000000  1.0000000 )


      isym =  2     180 deg rotation - cart. axis [0,1,0]        

 cryst.   s( 2) = (    -1          0          0      )
                  (     1          1          0      )
                  (     0          0         -1      )

 cart.    s( 2) = ( -1.0000000  0.0000000  0.0000000 )
                  (  0.0000000  1.0000000  0.0000000 )
                  (  0.0000000  0.0000000 -1.0000000 )


      isym =  3     120 deg rotation - cryst. axis [0,0,1]       

 cryst.   s( 3) = (     0          1          0      )
                  (    -1         -1          0      )
                  (     0          0          1      )

 cart.    s( 3) = ( -0.5000000 -0.8660254  0.0000000 )
                  (  0.8660254 -0.5000000  0.0000000 )
                  (  0.0000000  0.0000000  1.0000000 )


      isym =  4     120 deg rotation - cryst. axis [0,0,-1]      

 cryst.   s( 4) = (    -1         -1          0      )
                  (     1          0          0      )
                  (     0          0          1      )

 cart.    s( 4) = ( -0.5000000  0.8660254  0.0000000 )
                  ( -0.8660254 -0.5000000  0.0000000 )
                  (  0.0000000  0.0000000  1.0000000 )


      isym =  5     180 deg rotation - cryst. axis [1,-1,0]      

 cryst.   s( 5) = (     0         -1          0      )
                  (    -1          0          0      )
                  (     0          0         -1      )

 cart.    s( 5) = (  0.5000000 -0.8660254  0.0000000 )
                  ( -0.8660254 -0.5000000  0.0000000 )
                  (  0.0000000  0.0000000 -1.0000000 )


      isym =  6     180 deg rotation - cryst. axis [2,1,0]       

 cryst.   s( 6) = (     1          1          0      )
                  (     0         -1          0      )
                  (     0          0         -1      )

 cart.    s( 6) = (  0.5000000  0.8660254  0.0000000 )
                  (  0.8660254 -0.5000000  0.0000000 )
                  (  0.0000000  0.0000000 -1.0000000 )


      isym =  7     inv. 180 deg rotation - cart. axis [0,0,1]   

 cryst.   s( 7) = (     1          0          0      )
                  (     0          1          0      )
                  (     0          0         -1      )

 cart.    s( 7) = (  1.0000000  0.0000000  0.0000000 )
                  (  0.0000000  1.0000000  0.0000000 )
                  (  0.0000000  0.0000000 -1.0000000 )


      isym =  8     inv. 180 deg rotation - cart. axis [1,0,0]   

 cryst.   s( 8) = (    -1          0          0      )
                  (     1          1          0      )
                  (     0          0          1      )

 cart.    s( 8) = ( -1.0000000  0.0000000  0.0000000 )
                  (  0.0000000  1.0000000  0.0000000 )
                  (  0.0000000  0.0000000  1.0000000 )


      isym =  9     inv.  60 deg rotation - cryst. axis [0,0,1]  

 cryst.   s( 9) = (    -1         -1          0      )
                  (     1          0          0      )
                  (     0          0         -1      )

 cart.    s( 9) = ( -0.5000000  0.8660254  0.0000000 )
                  ( -0.8660254 -0.5000000  0.0000000 )
                  (  0.0000000  0.0000000 -1.0000000 )


      isym = 10     inv.  60 deg rotation - cryst. axis [0,0,-1] 

 cryst.   s(10) = (     0          1          0      )
                  (    -1         -1          0      )
                  (     0          0         -1      )

 cart.    s(10) = ( -0.5000000 -0.8660254  0.0000000 )
                  (  0.8660254 -0.5000000  0.0000000 )
                  (  0.0000000  0.0000000 -1.0000000 )


      isym = 11     inv. 180 deg rotation - cryst. axis [0,1,0]  

 cryst.   s(11) = (     1          1          0      )
                  (     0         -1          0      )
                  (     0          0          1      )

 cart.    s(11) = (  0.5000000  0.8660254  0.0000000 )
                  (  0.8660254 -0.5000000  0.0000000 )
                  (  0.0000000  0.0000000  1.0000000 )


      isym = 12     inv. 180 deg rotation - cryst. axis [1,1,0]  

 cryst.   s(12) = (     0         -1          0      )
                  (    -1          0          0      )
                  (     0          0          1      )

 cart.    s(12) = (  0.5000000 -0.8660254  0.0000000 )
                  ( -0.8660254 -0.5000000  0.0000000 )
                  (  0.0000000  0.0000000  1.0000000 )


     double point group D_3h (-62m)
     there are  9 classes and  3 irreducible representations
     the character table:

       E     -E    2C3   -2C3   3C2'  s_h  2S3   -2S3   3s_v
                               -3C2' -s_h'             -3s_v
G_7    2.00 -2.00  1.00 -1.00  0.00  0.00  1.73 -1.73  0.00
G_8    2.00 -2.00  1.00 -1.00  0.00  0.00 -1.73  1.73  0.00
G_9    2.00 -2.00 -2.00  2.00  0.00  0.00  0.00  0.00  0.00

     the symmetry operations in each class and the name of the first element:

     E             1
          identity                                               
     -E           -1
          identity E                                             
     2C3           3    4
          120 deg rotation - cryst. axis [0,0,1]                 
     -2C3         -3   -4
          120 deg rotation - cryst. axis [0,0,1] E               
      3C2'-3C2'    2   -6    5   -2   -5    6
          180 deg rotation - cart. axis [0,1,0]                  
      s_h -s_h'    7   -7
          inv. 180 deg rotation - cart. axis [0,0,1]             
     2S3           9   10
          inv.  60 deg rotation - cryst. axis [0,0,1]            
     -2S3         -9  -10
          inv.  60 deg rotation - cryst. axis [0,0,1] E          
      3s_v-3s_v    8   -8  -11  -12   11   12
          inv. 180 deg rotation - cart. axis [1,0,0]             

   Cartesian axes

     site n.     atom                  positions (alat units)
         1        W      tau(   1) = (  -0.0000000   0.5773503   0.0000000  )
         2        S      tau(   2) = (   0.5000000   0.2886751   0.4936007  )
         3        S      tau(   3) = (   0.5000000   0.2886751  -0.4936007  )

   Crystallographic axes

     site n.     atom                  positions (cryst. coord.)
         1        W      tau(   1) = (  0.3333333  0.6666667  0.0000000  )
         2        S      tau(   2) = (  0.6666667  0.3333333  0.0874271  )
         3        S      tau(   3) = (  0.6666667  0.3333333 -0.0874271  )

     number of k points=   290  Marzari-Vanderbilt smearing, width (Ry)=  0.0050
                       cart. coord. in units 2pi/alat
        k(    1) = (   0.0000000   0.0000000   0.0000000), wk =   0.0003189
        k(    2) = (   0.0000000   0.0206197   0.0000000), wk =   0.0019133
        k(    3) = (   0.0000000   0.0412393   0.0000000), wk =   0.0019133
        k(    4) = (   0.0000000   0.0618590   0.0000000), wk =   0.0019133
        k(    5) = (   0.0000000   0.0824786   0.0000000), wk =   0.0019133
        k(    6) = (   0.0000000   0.1030983   0.0000000), wk =   0.0019133
        k(    7) = (   0.0000000   0.1237179   0.0000000), wk =   0.0019133
        k(    8) = (   0.0000000   0.1443376   0.0000000), wk =   0.0019133
        k(    9) = (   0.0000000   0.1649572   0.0000000), wk =   0.0019133
        k(   10) = (   0.0000000   0.1855769   0.0000000), wk =   0.0019133
        k(   11) = (   0.0000000   0.2061965   0.0000000), wk =   0.0019133
        k(   12) = (   0.0000000   0.2268162   0.0000000), wk =   0.0019133
        k(   13) = (   0.0000000   0.2474358   0.0000000), wk =   0.0019133
        k(   14) = (   0.0000000   0.2680555   0.0000000), wk =   0.0019133
        k(   15) = (   0.0000000   0.2886751   0.0000000), wk =   0.0019133
        k(   16) = (   0.0000000   0.3092948   0.0000000), wk =   0.0019133
        k(   17) = (   0.0000000   0.3299144   0.0000000), wk =   0.0019133
        k(   18) = (   0.0000000   0.3505341   0.0000000), wk =   0.0019133
        k(   19) = (   0.0000000   0.3711537   0.0000000), wk =   0.0019133
        k(   20) = (   0.0000000   0.3917734   0.0000000), wk =   0.0019133
        k(   21) = (   0.0000000   0.4123930   0.0000000), wk =   0.0019133
        k(   22) = (   0.0000000   0.4330127   0.0000000), wk =   0.0019133
        k(   23) = (   0.0000000   0.4536324   0.0000000), wk =   0.0019133
        k(   24) = (   0.0000000   0.4742520   0.0000000), wk =   0.0019133
        k(   25) = (   0.0000000   0.4948717   0.0000000), wk =   0.0019133
        k(   26) = (   0.0000000   0.5154913   0.0000000), wk =   0.0019133
        k(   27) = (   0.0000000   0.5361110   0.0000000), wk =   0.0019133
        k(   28) = (   0.0000000   0.5567306   0.0000000), wk =   0.0019133
        k(   29) = (   0.0000000  -0.5773503   0.0000000), wk =   0.0009566
        k(   30) = (   0.0178571   0.0309295   0.0000000), wk =   0.0019133
        k(   31) = (   0.0178571   0.0515491   0.0000000), wk =   0.0038265
        k(   32) = (   0.0178571   0.0721688   0.0000000), wk =   0.0038265
        k(   33) = (   0.0178571   0.0927884   0.0000000), wk =   0.0038265
        k(   34) = (   0.0178571   0.1134081   0.0000000), wk =   0.0038265
        k(   35) = (   0.0178571   0.1340277   0.0000000), wk =   0.0038265
        k(   36) = (   0.0178571   0.1546474   0.0000000), wk =   0.0038265
        k(   37) = (   0.0178571   0.1752670   0.0000000), wk =   0.0038265
        k(   38) = (   0.0178571   0.1958867   0.0000000), wk =   0.0038265
        k(   39) = (   0.0178571   0.2165064   0.0000000), wk =   0.0038265
        k(   40) = (   0.0178571   0.2371260   0.0000000), wk =   0.0038265
        k(   41) = (   0.0178571   0.2577457   0.0000000), wk =   0.0038265
        k(   42) = (   0.0178571   0.2783653   0.0000000), wk =   0.0038265
        k(   43) = (   0.0178571   0.2989850   0.0000000), wk =   0.0038265
        k(   44) = (   0.0178571   0.3196046   0.0000000), wk =   0.0038265
        k(   45) = (   0.0178571   0.3402243   0.0000000), wk =   0.0038265
        k(   46) = (   0.0178571   0.3608439   0.0000000), wk =   0.0038265
        k(   47) = (   0.0178571   0.3814636   0.0000000), wk =   0.0038265
        k(   48) = (   0.0178571   0.4020832   0.0000000), wk =   0.0038265
        k(   49) = (   0.0178571   0.4227029   0.0000000), wk =   0.0038265
        k(   50) = (   0.0178571   0.4433225   0.0000000), wk =   0.0038265
        k(   51) = (   0.0178571   0.4639422   0.0000000), wk =   0.0038265
        k(   52) = (   0.0178571   0.4845618   0.0000000), wk =   0.0038265
        k(   53) = (   0.0178571   0.5051815   0.0000000), wk =   0.0038265
        k(   54) = (   0.0178571   0.5258011   0.0000000), wk =   0.0038265
        k(   55) = (   0.0178571   0.5464208   0.0000000), wk =   0.0038265
        k(   56) = (   0.0178571   0.5670404   0.0000000), wk =   0.0038265
        k(   57) = (   0.0357143   0.0618590   0.0000000), wk =   0.0019133
        k(   58) = (   0.0357143   0.0824786   0.0000000), wk =   0.0038265
        k(   59) = (   0.0357143   0.1030983   0.0000000), wk =   0.0038265
        k(   60) = (   0.0357143   0.1237179   0.0000000), wk =   0.0038265
        k(   61) = (   0.0357143   0.1443376   0.0000000), wk =   0.0038265
        k(   62) = (   0.0357143   0.1649572   0.0000000), wk =   0.0038265
        k(   63) = (   0.0357143   0.1855769   0.0000000), wk =   0.0038265
        k(   64) = (   0.0357143   0.2061965   0.0000000), wk =   0.0038265
        k(   65) = (   0.0357143   0.2268162   0.0000000), wk =   0.0038265
        k(   66) = (   0.0357143   0.2474358   0.0000000), wk =   0.0038265
        k(   67) = (   0.0357143   0.2680555   0.0000000), wk =   0.0038265
        k(   68) = (   0.0357143   0.2886751   0.0000000), wk =   0.0038265
        k(   69) = (   0.0357143   0.3092948   0.0000000), wk =   0.0038265
        k(   70) = (   0.0357143   0.3299144   0.0000000), wk =   0.0038265
        k(   71) = (   0.0357143   0.3505341   0.0000000), wk =   0.0038265
        k(   72) = (   0.0357143   0.3711537   0.0000000), wk =   0.0038265
        k(   73) = (   0.0357143   0.3917734   0.0000000), wk =   0.0038265
        k(   74) = (   0.0357143   0.4123930   0.0000000), wk =   0.0038265
        k(   75) = (   0.0357143   0.4330127   0.0000000), wk =   0.0038265
        k(   76) = (   0.0357143   0.4536324   0.0000000), wk =   0.0038265
        k(   77) = (   0.0357143   0.4742520   0.0000000), wk =   0.0038265
        k(   78) = (   0.0357143   0.4948717   0.0000000), wk =   0.0038265
        k(   79) = (   0.0357143   0.5154913   0.0000000), wk =   0.0038265
        k(   80) = (   0.0357143   0.5361110   0.0000000), wk =   0.0038265
        k(   81) = (   0.0357143   0.5567306   0.0000000), wk =   0.0038265
        k(   82) = (   0.0357143   0.5773503   0.0000000), wk =   0.0019133
        k(   83) = (   0.0535714   0.0927884   0.0000000), wk =   0.0019133
        k(   84) = (   0.0535714   0.1134081   0.0000000), wk =   0.0038265
        k(   85) = (   0.0535714   0.1340277   0.0000000), wk =   0.0038265
        k(   86) = (   0.0535714   0.1546474   0.0000000), wk =   0.0038265
        k(   87) = (   0.0535714   0.1752670   0.0000000), wk =   0.0038265
        k(   88) = (   0.0535714   0.1958867   0.0000000), wk =   0.0038265
        k(   89) = (   0.0535714   0.2165064   0.0000000), wk =   0.0038265
        k(   90) = (   0.0535714   0.2371260   0.0000000), wk =   0.0038265
        k(   91) = (   0.0535714   0.2577457   0.0000000), wk =   0.0038265
        k(   92) = (   0.0535714   0.2783653   0.0000000), wk =   0.0038265
        k(   93) = (   0.0535714   0.2989850   0.0000000), wk =   0.0038265
        k(   94) = (   0.0535714   0.3196046   0.0000000), wk =   0.0038265
        k(   95) = (   0.0535714   0.3402243   0.0000000), wk =   0.0038265
        k(   96) = (   0.0535714   0.3608439   0.0000000), wk =   0.0038265
        k(   97) = (   0.0535714   0.3814636   0.0000000), wk =   0.0038265
        k(   98) = (   0.0535714   0.4020832   0.0000000), wk =   0.0038265
        k(   99) = (   0.0535714   0.4227029   0.0000000), wk =   0.0038265
        k(  100) = (   0.0535714   0.4433225   0.0000000), wk =   0.0038265
        k(  101) = (   0.0535714   0.4639422   0.0000000), wk =   0.0038265
        k(  102) = (   0.0535714   0.4845618   0.0000000), wk =   0.0038265
        k(  103) = (   0.0535714   0.5051815   0.0000000), wk =   0.0038265
        k(  104) = (   0.0535714   0.5258011   0.0000000), wk =   0.0038265
        k(  105) = (   0.0535714   0.5464208   0.0000000), wk =   0.0038265
        k(  106) = (   0.0535714   0.5670404   0.0000000), wk =   0.0038265
        k(  107) = (   0.0714286   0.1237179   0.0000000), wk =   0.0019133
        k(  108) = (   0.0714286   0.1443376   0.0000000), wk =   0.0038265
        k(  109) = (   0.0714286   0.1649572   0.0000000), wk =   0.0038265
        k(  110) = (   0.0714286   0.1855769   0.0000000), wk =   0.0038265
        k(  111) = (   0.0714286   0.2061965   0.0000000), wk =   0.0038265
        k(  112) = (   0.0714286   0.2268162   0.0000000), wk =   0.0038265
        k(  113) = (   0.0714286   0.2474358   0.0000000), wk =   0.0038265
        k(  114) = (   0.0714286   0.2680555   0.0000000), wk =   0.0038265
        k(  115) = (   0.0714286   0.2886751   0.0000000), wk =   0.0038265
        k(  116) = (   0.0714286   0.3092948   0.0000000), wk =   0.0038265
        k(  117) = (   0.0714286   0.3299144   0.0000000), wk =   0.0038265
        k(  118) = (   0.0714286   0.3505341   0.0000000), wk =   0.0038265
        k(  119) = (   0.0714286   0.3711537   0.0000000), wk =   0.0038265
        k(  120) = (   0.0714286   0.3917734   0.0000000), wk =   0.0038265
        k(  121) = (   0.0714286   0.4123930   0.0000000), wk =   0.0038265
        k(  122) = (   0.0714286   0.4330127   0.0000000), wk =   0.0038265
        k(  123) = (   0.0714286   0.4536324   0.0000000), wk =   0.0038265
        k(  124) = (   0.0714286   0.4742520   0.0000000), wk =   0.0038265
        k(  125) = (   0.0714286   0.4948717   0.0000000), wk =   0.0038265
        k(  126) = (   0.0714286   0.5154913   0.0000000), wk =   0.0038265
        k(  127) = (   0.0714286   0.5361110   0.0000000), wk =   0.0038265
        k(  128) = (   0.0714286   0.5567306   0.0000000), wk =   0.0038265
        k(  129) = (   0.0714286   0.5773503   0.0000000), wk =   0.0019133
        k(  130) = (   0.0892857   0.1546474   0.0000000), wk =   0.0019133
        k(  131) = (   0.0892857   0.1752670   0.0000000), wk =   0.0038265
        k(  132) = (   0.0892857   0.1958867   0.0000000), wk =   0.0038265
        k(  133) = (   0.0892857   0.2165064   0.0000000), wk =   0.0038265
        k(  134) = (   0.0892857   0.2371260   0.0000000), wk =   0.0038265
        k(  135) = (   0.0892857   0.2577457   0.0000000), wk =   0.0038265
        k(  136) = (   0.0892857   0.2783653   0.0000000), wk =   0.0038265
        k(  137) = (   0.0892857   0.2989850   0.0000000), wk =   0.0038265
        k(  138) = (   0.0892857   0.3196046   0.0000000), wk =   0.0038265
        k(  139) = (   0.0892857   0.3402243   0.0000000), wk =   0.0038265
        k(  140) = (   0.0892857   0.3608439   0.0000000), wk =   0.0038265
        k(  141) = (   0.0892857   0.3814636   0.0000000), wk =   0.0038265
        k(  142) = (   0.0892857   0.4020832   0.0000000), wk =   0.0038265
        k(  143) = (   0.0892857   0.4227029   0.0000000), wk =   0.0038265
        k(  144) = (   0.0892857   0.4433225   0.0000000), wk =   0.0038265
        k(  145) = (   0.0892857   0.4639422   0.0000000), wk =   0.0038265
        k(  146) = (   0.0892857   0.4845618   0.0000000), wk =   0.0038265
        k(  147) = (   0.0892857   0.5051815   0.0000000), wk =   0.0038265
        k(  148) = (   0.0892857   0.5258011   0.0000000), wk =   0.0038265
        k(  149) = (   0.0892857   0.5464208   0.0000000), wk =   0.0038265
        k(  150) = (   0.0892857   0.5670404   0.0000000), wk =   0.0038265
        k(  151) = (   0.1071429   0.1855769   0.0000000), wk =   0.0019133
        k(  152) = (   0.1071429   0.2061965   0.0000000), wk =   0.0038265
        k(  153) = (   0.1071429   0.2268162   0.0000000), wk =   0.0038265
        k(  154) = (   0.1071429   0.2474358   0.0000000), wk =   0.0038265
        k(  155) = (   0.1071429   0.2680555   0.0000000), wk =   0.0038265
        k(  156) = (   0.1071429   0.2886751   0.0000000), wk =   0.0038265
        k(  157) = (   0.1071429   0.3092948   0.0000000), wk =   0.0038265
        k(  158) = (   0.1071429   0.3299144   0.0000000), wk =   0.0038265
        k(  159) = (   0.1071429   0.3505341   0.0000000), wk =   0.0038265
        k(  160) = (   0.1071429   0.3711537   0.0000000), wk =   0.0038265
        k(  161) = (   0.1071429   0.3917734   0.0000000), wk =   0.0038265
        k(  162) = (   0.1071429   0.4123930   0.0000000), wk =   0.0038265
        k(  163) = (   0.1071429   0.4330127   0.0000000), wk =   0.0038265
        k(  164) = (   0.1071429   0.4536324   0.0000000), wk =   0.0038265
        k(  165) = (   0.1071429   0.4742520   0.0000000), wk =   0.0038265
        k(  166) = (   0.1071429   0.4948717   0.0000000), wk =   0.0038265
        k(  167) = (   0.1071429   0.5154913   0.0000000), wk =   0.0038265
        k(  168) = (   0.1071429   0.5361110   0.0000000), wk =   0.0038265
        k(  169) = (   0.1071429   0.5567306   0.0000000), wk =   0.0038265
        k(  170) = (   0.1071429   0.5773503   0.0000000), wk =   0.0019133
        k(  171) = (   0.1250000   0.2165064   0.0000000), wk =   0.0019133
        k(  172) = (   0.1250000   0.2371260   0.0000000), wk =   0.0038265
        k(  173) = (   0.1250000   0.2577457   0.0000000), wk =   0.0038265
        k(  174) = (   0.1250000   0.2783653   0.0000000), wk =   0.0038265
        k(  175) = (   0.1250000   0.2989850   0.0000000), wk =   0.0038265
        k(  176) = (   0.1250000   0.3196046   0.0000000), wk =   0.0038265
        k(  177) = (   0.1250000   0.3402243   0.0000000), wk =   0.0038265
        k(  178) = (   0.1250000   0.3608439   0.0000000), wk =   0.0038265
        k(  179) = (   0.1250000   0.3814636   0.0000000), wk =   0.0038265
        k(  180) = (   0.1250000   0.4020832   0.0000000), wk =   0.0038265
        k(  181) = (   0.1250000   0.4227029   0.0000000), wk =   0.0038265
        k(  182) = (   0.1250000   0.4433225   0.0000000), wk =   0.0038265
        k(  183) = (   0.1250000   0.4639422   0.0000000), wk =   0.0038265
        k(  184) = (   0.1250000   0.4845618   0.0000000), wk =   0.0038265
        k(  185) = (   0.1250000   0.5051815   0.0000000), wk =   0.0038265
        k(  186) = (   0.1250000   0.5258011   0.0000000), wk =   0.0038265
        k(  187) = (   0.1250000   0.5464208   0.0000000), wk =   0.0038265
        k(  188) = (   0.1250000   0.5670404   0.0000000), wk =   0.0038265
        k(  189) = (   0.1428571   0.2474358   0.0000000), wk =   0.0019133
        k(  190) = (   0.1428571   0.2680555   0.0000000), wk =   0.0038265
        k(  191) = (   0.1428571   0.2886751   0.0000000), wk =   0.0038265
        k(  192) = (   0.1428571   0.3092948   0.0000000), wk =   0.0038265
        k(  193) = (   0.1428571   0.3299144   0.0000000), wk =   0.0038265
        k(  194) = (   0.1428571   0.3505341   0.0000000), wk =   0.0038265
        k(  195) = (   0.1428571   0.3711537   0.0000000), wk =   0.0038265
        k(  196) = (   0.1428571   0.3917734   0.0000000), wk =   0.0038265
        k(  197) = (   0.1428571   0.4123930   0.0000000), wk =   0.0038265
        k(  198) = (   0.1428571   0.4330127   0.0000000), wk =   0.0038265
        k(  199) = (   0.1428571   0.4536324   0.0000000), wk =   0.0038265
        k(  200) = (   0.1428571   0.4742520   0.0000000), wk =   0.0038265
        k(  201) = (   0.1428571   0.4948717   0.0000000), wk =   0.0038265
        k(  202) = (   0.1428571   0.5154913   0.0000000), wk =   0.0038265
        k(  203) = (   0.1428571   0.5361110   0.0000000), wk =   0.0038265
        k(  204) = (   0.1428571   0.5567306   0.0000000), wk =   0.0038265
        k(  205) = (   0.1428571   0.5773503   0.0000000), wk =   0.0019133
        k(  206) = (   0.1607143   0.2783653   0.0000000), wk =   0.0019133
        k(  207) = (   0.1607143   0.2989850   0.0000000), wk =   0.0038265
        k(  208) = (   0.1607143   0.3196046   0.0000000), wk =   0.0038265
        k(  209) = (   0.1607143   0.3402243   0.0000000), wk =   0.0038265
        k(  210) = (   0.1607143   0.3608439   0.0000000), wk =   0.0038265
        k(  211) = (   0.1607143   0.3814636   0.0000000), wk =   0.0038265
        k(  212) = (   0.1607143   0.4020832   0.0000000), wk =   0.0038265
        k(  213) = (   0.1607143   0.4227029   0.0000000), wk =   0.0038265
        k(  214) = (   0.1607143   0.4433225   0.0000000), wk =   0.0038265
        k(  215) = (   0.1607143   0.4639422   0.0000000), wk =   0.0038265
        k(  216) = (   0.1607143   0.4845618   0.0000000), wk =   0.0038265
        k(  217) = (   0.1607143   0.5051815   0.0000000), wk =   0.0038265
        k(  218) = (   0.1607143   0.5258011   0.0000000), wk =   0.0038265
        k(  219) = (   0.1607143   0.5464208   0.0000000), wk =   0.0038265
        k(  220) = (   0.1607143   0.5670404   0.0000000), wk =   0.0038265
        k(  221) = (   0.1785714   0.3092948   0.0000000), wk =   0.0019133
        k(  222) = (   0.1785714   0.3299144   0.0000000), wk =   0.0038265
        k(  223) = (   0.1785714   0.3505341   0.0000000), wk =   0.0038265
        k(  224) = (   0.1785714   0.3711537   0.0000000), wk =   0.0038265
        k(  225) = (   0.1785714   0.3917734   0.0000000), wk =   0.0038265
        k(  226) = (   0.1785714   0.4123930   0.0000000), wk =   0.0038265
        k(  227) = (   0.1785714   0.4330127   0.0000000), wk =   0.0038265
        k(  228) = (   0.1785714   0.4536324   0.0000000), wk =   0.0038265
        k(  229) = (   0.1785714   0.4742520   0.0000000), wk =   0.0038265
        k(  230) = (   0.1785714   0.4948717   0.0000000), wk =   0.0038265
        k(  231) = (   0.1785714   0.5154913   0.0000000), wk =   0.0038265
        k(  232) = (   0.1785714   0.5361110   0.0000000), wk =   0.0038265
        k(  233) = (   0.1785714   0.5567306   0.0000000), wk =   0.0038265
        k(  234) = (   0.1785714   0.5773503   0.0000000), wk =   0.0019133
        k(  235) = (   0.1964286   0.3402243   0.0000000), wk =   0.0019133
        k(  236) = (   0.1964286   0.3608439   0.0000000), wk =   0.0038265
        k(  237) = (   0.1964286   0.3814636   0.0000000), wk =   0.0038265
        k(  238) = (   0.1964286   0.4020832   0.0000000), wk =   0.0038265
        k(  239) = (   0.1964286   0.4227029   0.0000000), wk =   0.0038265
        k(  240) = (   0.1964286   0.4433225   0.0000000), wk =   0.0038265
        k(  241) = (   0.1964286   0.4639422   0.0000000), wk =   0.0038265
        k(  242) = (   0.1964286   0.4845618   0.0000000), wk =   0.0038265
        k(  243) = (   0.1964286   0.5051815   0.0000000), wk =   0.0038265
        k(  244) = (   0.1964286   0.5258011   0.0000000), wk =   0.0038265
        k(  245) = (   0.1964286   0.5464208   0.0000000), wk =   0.0038265
        k(  246) = (   0.1964286   0.5670404   0.0000000), wk =   0.0038265
        k(  247) = (   0.2142857   0.3711537   0.0000000), wk =   0.0019133
        k(  248) = (   0.2142857   0.3917734   0.0000000), wk =   0.0038265
        k(  249) = (   0.2142857   0.4123930   0.0000000), wk =   0.0038265
        k(  250) = (   0.2142857   0.4330127   0.0000000), wk =   0.0038265
        k(  251) = (   0.2142857   0.4536324   0.0000000), wk =   0.0038265
        k(  252) = (   0.2142857   0.4742520   0.0000000), wk =   0.0038265
        k(  253) = (   0.2142857   0.4948717   0.0000000), wk =   0.0038265
        k(  254) = (   0.2142857   0.5154913   0.0000000), wk =   0.0038265
        k(  255) = (   0.2142857   0.5361110   0.0000000), wk =   0.0038265
        k(  256) = (   0.2142857   0.5567306   0.0000000), wk =   0.0038265
        k(  257) = (   0.2142857   0.5773503   0.0000000), wk =   0.0019133
        k(  258) = (   0.2321429   0.4020832   0.0000000), wk =   0.0019133
        k(  259) = (   0.2321429   0.4227029   0.0000000), wk =   0.0038265
        k(  260) = (   0.2321429   0.4433225   0.0000000), wk =   0.0038265
        k(  261) = (   0.2321429   0.4639422   0.0000000), wk =   0.0038265
        k(  262) = (   0.2321429   0.4845618   0.0000000), wk =   0.0038265
        k(  263) = (   0.2321429   0.5051815   0.0000000), wk =   0.0038265
        k(  264) = (   0.2321429   0.5258011   0.0000000), wk =   0.0038265
        k(  265) = (   0.2321429   0.5464208   0.0000000), wk =   0.0038265
        k(  266) = (   0.2321429   0.5670404   0.0000000), wk =   0.0038265
        k(  267) = (   0.2500000   0.4330127   0.0000000), wk =   0.0019133
        k(  268) = (   0.2500000   0.4536324   0.0000000), wk =   0.0038265
        k(  269) = (   0.2500000   0.4742520   0.0000000), wk =   0.0038265
        k(  270) = (   0.2500000   0.4948717   0.0000000), wk =   0.0038265
        k(  271) = (   0.2500000   0.5154913   0.0000000), wk =   0.0038265
        k(  272) = (   0.2500000   0.5361110   0.0000000), wk =   0.0038265
        k(  273) = (   0.2500000   0.5567306   0.0000000), wk =   0.0038265
        k(  274) = (   0.2500000   0.5773503   0.0000000), wk =   0.0019133
        k(  275) = (   0.2678571   0.4639422   0.0000000), wk =   0.0019133
        k(  276) = (   0.2678571   0.4845618   0.0000000), wk =   0.0038265
        k(  277) = (   0.2678571   0.5051815   0.0000000), wk =   0.0038265
        k(  278) = (   0.2678571   0.5258011   0.0000000), wk =   0.0038265
        k(  279) = (   0.2678571   0.5464208   0.0000000), wk =   0.0038265
        k(  280) = (   0.2678571   0.5670404   0.0000000), wk =   0.0038265
        k(  281) = (   0.2857143   0.4948717   0.0000000), wk =   0.0019133
        k(  282) = (   0.2857143   0.5154913   0.0000000), wk =   0.0038265
        k(  283) = (   0.2857143   0.5361110   0.0000000), wk =   0.0038265
        k(  284) = (   0.2857143   0.5567306   0.0000000), wk =   0.0038265
        k(  285) = (   0.2857143   0.5773503   0.0000000), wk =   0.0019133
        k(  286) = (   0.3035714   0.5258011   0.0000000), wk =   0.0019133
        k(  287) = (   0.3035714   0.5464208   0.0000000), wk =   0.0038265
        k(  288) = (   0.3035714   0.5670404   0.0000000), wk =   0.0038265
        k(  289) = (   0.3214286   0.5567306   0.0000000), wk =   0.0019133
        k(  290) = (   0.3214286   0.5773503   0.0000000), wk =   0.0019133

                       cryst. coord.
        k(    1) = (   0.0000000   0.0000000   0.0000000), wk =   0.0003189
        k(    2) = (   0.0000000   0.0178571   0.0000000), wk =   0.0019133
        k(    3) = (   0.0000000   0.0357143   0.0000000), wk =   0.0019133
        k(    4) = (   0.0000000   0.0535714   0.0000000), wk =   0.0019133
        k(    5) = (   0.0000000   0.0714286   0.0000000), wk =   0.0019133
        k(    6) = (   0.0000000   0.0892857   0.0000000), wk =   0.0019133
        k(    7) = (   0.0000000   0.1071429   0.0000000), wk =   0.0019133
        k(    8) = (   0.0000000   0.1250000   0.0000000), wk =   0.0019133
        k(    9) = (   0.0000000   0.1428571   0.0000000), wk =   0.0019133
        k(   10) = (   0.0000000   0.1607143   0.0000000), wk =   0.0019133
        k(   11) = (   0.0000000   0.1785714   0.0000000), wk =   0.0019133
        k(   12) = (   0.0000000   0.1964286   0.0000000), wk =   0.0019133
        k(   13) = (   0.0000000   0.2142857   0.0000000), wk =   0.0019133
        k(   14) = (   0.0000000   0.2321429   0.0000000), wk =   0.0019133
        k(   15) = (   0.0000000   0.2500000   0.0000000), wk =   0.0019133
        k(   16) = (   0.0000000   0.2678571   0.0000000), wk =   0.0019133
        k(   17) = (   0.0000000   0.2857143   0.0000000), wk =   0.0019133
        k(   18) = (   0.0000000   0.3035714   0.0000000), wk =   0.0019133
        k(   19) = (   0.0000000   0.3214286   0.0000000), wk =   0.0019133
        k(   20) = (   0.0000000   0.3392857   0.0000000), wk =   0.0019133
        k(   21) = (   0.0000000   0.3571429   0.0000000), wk =   0.0019133
        k(   22) = (   0.0000000   0.3750000   0.0000000), wk =   0.0019133
        k(   23) = (   0.0000000   0.3928571   0.0000000), wk =   0.0019133
        k(   24) = (   0.0000000   0.4107143   0.0000000), wk =   0.0019133
        k(   25) = (   0.0000000   0.4285714   0.0000000), wk =   0.0019133
        k(   26) = (   0.0000000   0.4464286   0.0000000), wk =   0.0019133
        k(   27) = (   0.0000000   0.4642857   0.0000000), wk =   0.0019133
        k(   28) = (   0.0000000   0.4821429   0.0000000), wk =   0.0019133
        k(   29) = (   0.0000000  -0.5000000   0.0000000), wk =   0.0009566
        k(   30) = (   0.0178571   0.0178571   0.0000000), wk =   0.0019133
        k(   31) = (   0.0178571   0.0357143   0.0000000), wk =   0.0038265
        k(   32) = (   0.0178571   0.0535714   0.0000000), wk =   0.0038265
        k(   33) = (   0.0178571   0.0714286   0.0000000), wk =   0.0038265
        k(   34) = (   0.0178571   0.0892857   0.0000000), wk =   0.0038265
        k(   35) = (   0.0178571   0.1071429   0.0000000), wk =   0.0038265
        k(   36) = (   0.0178571   0.1250000   0.0000000), wk =   0.0038265
        k(   37) = (   0.0178571   0.1428571   0.0000000), wk =   0.0038265
        k(   38) = (   0.0178571   0.1607143   0.0000000), wk =   0.0038265
        k(   39) = (   0.0178571   0.1785714   0.0000000), wk =   0.0038265
        k(   40) = (   0.0178571   0.1964286   0.0000000), wk =   0.0038265
        k(   41) = (   0.0178571   0.2142857   0.0000000), wk =   0.0038265
        k(   42) = (   0.0178571   0.2321429   0.0000000), wk =   0.0038265
        k(   43) = (   0.0178571   0.2500000   0.0000000), wk =   0.0038265
        k(   44) = (   0.0178571   0.2678571   0.0000000), wk =   0.0038265
        k(   45) = (   0.0178571   0.2857143   0.0000000), wk =   0.0038265
        k(   46) = (   0.0178571   0.3035714   0.0000000), wk =   0.0038265
        k(   47) = (   0.0178571   0.3214286   0.0000000), wk =   0.0038265
        k(   48) = (   0.0178571   0.3392857   0.0000000), wk =   0.0038265
        k(   49) = (   0.0178571   0.3571429   0.0000000), wk =   0.0038265
        k(   50) = (   0.0178571   0.3750000   0.0000000), wk =   0.0038265
        k(   51) = (   0.0178571   0.3928571   0.0000000), wk =   0.0038265
        k(   52) = (   0.0178571   0.4107143   0.0000000), wk =   0.0038265
        k(   53) = (   0.0178571   0.4285714   0.0000000), wk =   0.0038265
        k(   54) = (   0.0178571   0.4464286   0.0000000), wk =   0.0038265
        k(   55) = (   0.0178571   0.4642857   0.0000000), wk =   0.0038265
        k(   56) = (   0.0178571   0.4821429   0.0000000), wk =   0.0038265
        k(   57) = (   0.0357143   0.0357143   0.0000000), wk =   0.0019133
        k(   58) = (   0.0357143   0.0535714   0.0000000), wk =   0.0038265
        k(   59) = (   0.0357143   0.0714286   0.0000000), wk =   0.0038265
        k(   60) = (   0.0357143   0.0892857   0.0000000), wk =   0.0038265
        k(   61) = (   0.0357143   0.1071429   0.0000000), wk =   0.0038265
        k(   62) = (   0.0357143   0.1250000   0.0000000), wk =   0.0038265
        k(   63) = (   0.0357143   0.1428571   0.0000000), wk =   0.0038265
        k(   64) = (   0.0357143   0.1607143   0.0000000), wk =   0.0038265
        k(   65) = (   0.0357143   0.1785714   0.0000000), wk =   0.0038265
        k(   66) = (   0.0357143   0.1964286   0.0000000), wk =   0.0038265
        k(   67) = (   0.0357143   0.2142857   0.0000000), wk =   0.0038265
        k(   68) = (   0.0357143   0.2321429   0.0000000), wk =   0.0038265
        k(   69) = (   0.0357143   0.2500000   0.0000000), wk =   0.0038265
        k(   70) = (   0.0357143   0.2678571   0.0000000), wk =   0.0038265
        k(   71) = (   0.0357143   0.2857143   0.0000000), wk =   0.0038265
        k(   72) = (   0.0357143   0.3035714   0.0000000), wk =   0.0038265
        k(   73) = (   0.0357143   0.3214286   0.0000000), wk =   0.0038265
        k(   74) = (   0.0357143   0.3392857   0.0000000), wk =   0.0038265
        k(   75) = (   0.0357143   0.3571429   0.0000000), wk =   0.0038265
        k(   76) = (   0.0357143   0.3750000   0.0000000), wk =   0.0038265
        k(   77) = (   0.0357143   0.3928571   0.0000000), wk =   0.0038265
        k(   78) = (   0.0357143   0.4107143   0.0000000), wk =   0.0038265
        k(   79) = (   0.0357143   0.4285714   0.0000000), wk =   0.0038265
        k(   80) = (   0.0357143   0.4464286   0.0000000), wk =   0.0038265
        k(   81) = (   0.0357143   0.4642857   0.0000000), wk =   0.0038265
        k(   82) = (   0.0357143   0.4821429   0.0000000), wk =   0.0019133
        k(   83) = (   0.0535714   0.0535714   0.0000000), wk =   0.0019133
        k(   84) = (   0.0535714   0.0714286   0.0000000), wk =   0.0038265
        k(   85) = (   0.0535714   0.0892857   0.0000000), wk =   0.0038265
        k(   86) = (   0.0535714   0.1071429   0.0000000), wk =   0.0038265
        k(   87) = (   0.0535714   0.1250000   0.0000000), wk =   0.0038265
        k(   88) = (   0.0535714   0.1428571   0.0000000), wk =   0.0038265
        k(   89) = (   0.0535714   0.1607143   0.0000000), wk =   0.0038265
        k(   90) = (   0.0535714   0.1785714   0.0000000), wk =   0.0038265
        k(   91) = (   0.0535714   0.1964286   0.0000000), wk =   0.0038265
        k(   92) = (   0.0535714   0.2142857   0.0000000), wk =   0.0038265
        k(   93) = (   0.0535714   0.2321429   0.0000000), wk =   0.0038265
        k(   94) = (   0.0535714   0.2500000   0.0000000), wk =   0.0038265
        k(   95) = (   0.0535714   0.2678571   0.0000000), wk =   0.0038265
        k(   96) = (   0.0535714   0.2857143   0.0000000), wk =   0.0038265
        k(   97) = (   0.0535714   0.3035714   0.0000000), wk =   0.0038265
        k(   98) = (   0.0535714   0.3214286   0.0000000), wk =   0.0038265
        k(   99) = (   0.0535714   0.3392857   0.0000000), wk =   0.0038265
        k(  100) = (   0.0535714   0.3571429   0.0000000), wk =   0.0038265
        k(  101) = (   0.0535714   0.3750000   0.0000000), wk =   0.0038265
        k(  102) = (   0.0535714   0.3928571   0.0000000), wk =   0.0038265
        k(  103) = (   0.0535714   0.4107143   0.0000000), wk =   0.0038265
        k(  104) = (   0.0535714   0.4285714   0.0000000), wk =   0.0038265
        k(  105) = (   0.0535714   0.4464286   0.0000000), wk =   0.0038265
        k(  106) = (   0.0535714   0.4642857   0.0000000), wk =   0.0038265
        k(  107) = (   0.0714286   0.0714286   0.0000000), wk =   0.0019133
        k(  108) = (   0.0714286   0.0892857   0.0000000), wk =   0.0038265
        k(  109) = (   0.0714286   0.1071429   0.0000000), wk =   0.0038265
        k(  110) = (   0.0714286   0.1250000   0.0000000), wk =   0.0038265
        k(  111) = (   0.0714286   0.1428571   0.0000000), wk =   0.0038265
        k(  112) = (   0.0714286   0.1607143   0.0000000), wk =   0.0038265
        k(  113) = (   0.0714286   0.1785714   0.0000000), wk =   0.0038265
        k(  114) = (   0.0714286   0.1964286   0.0000000), wk =   0.0038265
        k(  115) = (   0.0714286   0.2142857   0.0000000), wk =   0.0038265
        k(  116) = (   0.0714286   0.2321429   0.0000000), wk =   0.0038265
        k(  117) = (   0.0714286   0.2500000   0.0000000), wk =   0.0038265
        k(  118) = (   0.0714286   0.2678571   0.0000000), wk =   0.0038265
        k(  119) = (   0.0714286   0.2857143   0.0000000), wk =   0.0038265
        k(  120) = (   0.0714286   0.3035714   0.0000000), wk =   0.0038265
        k(  121) = (   0.0714286   0.3214286   0.0000000), wk =   0.0038265
        k(  122) = (   0.0714286   0.3392857   0.0000000), wk =   0.0038265
        k(  123) = (   0.0714286   0.3571429   0.0000000), wk =   0.0038265
        k(  124) = (   0.0714286   0.3750000   0.0000000), wk =   0.0038265
        k(  125) = (   0.0714286   0.3928571   0.0000000), wk =   0.0038265
        k(  126) = (   0.0714286   0.4107143   0.0000000), wk =   0.0038265
        k(  127) = (   0.0714286   0.4285714   0.0000000), wk =   0.0038265
        k(  128) = (   0.0714286   0.4464286   0.0000000), wk =   0.0038265
        k(  129) = (   0.0714286   0.4642857   0.0000000), wk =   0.0019133
        k(  130) = (   0.0892857   0.0892857   0.0000000), wk =   0.0019133
        k(  131) = (   0.0892857   0.1071429   0.0000000), wk =   0.0038265
        k(  132) = (   0.0892857   0.1250000   0.0000000), wk =   0.0038265
        k(  133) = (   0.0892857   0.1428571   0.0000000), wk =   0.0038265
        k(  134) = (   0.0892857   0.1607143   0.0000000), wk =   0.0038265
        k(  135) = (   0.0892857   0.1785714   0.0000000), wk =   0.0038265
        k(  136) = (   0.0892857   0.1964286   0.0000000), wk =   0.0038265
        k(  137) = (   0.0892857   0.2142857   0.0000000), wk =   0.0038265
        k(  138) = (   0.0892857   0.2321429   0.0000000), wk =   0.0038265
        k(  139) = (   0.0892857   0.2500000   0.0000000), wk =   0.0038265
        k(  140) = (   0.0892857   0.2678571   0.0000000), wk =   0.0038265
        k(  141) = (   0.0892857   0.2857143   0.0000000), wk =   0.0038265
        k(  142) = (   0.0892857   0.3035714   0.0000000), wk =   0.0038265
        k(  143) = (   0.0892857   0.3214286   0.0000000), wk =   0.0038265
        k(  144) = (   0.0892857   0.3392857   0.0000000), wk =   0.0038265
        k(  145) = (   0.0892857   0.3571429   0.0000000), wk =   0.0038265
        k(  146) = (   0.0892857   0.3750000   0.0000000), wk =   0.0038265
        k(  147) = (   0.0892857   0.3928571   0.0000000), wk =   0.0038265
        k(  148) = (   0.0892857   0.4107143   0.0000000), wk =   0.0038265
        k(  149) = (   0.0892857   0.4285714   0.0000000), wk =   0.0038265
        k(  150) = (   0.0892857   0.4464286   0.0000000), wk =   0.0038265
        k(  151) = (   0.1071429   0.1071429   0.0000000), wk =   0.0019133
        k(  152) = (   0.1071429   0.1250000   0.0000000), wk =   0.0038265
        k(  153) = (   0.1071429   0.1428571   0.0000000), wk =   0.0038265
        k(  154) = (   0.1071429   0.1607143   0.0000000), wk =   0.0038265
        k(  155) = (   0.1071429   0.1785714   0.0000000), wk =   0.0038265
        k(  156) = (   0.1071429   0.1964286   0.0000000), wk =   0.0038265
        k(  157) = (   0.1071429   0.2142857   0.0000000), wk =   0.0038265
        k(  158) = (   0.1071429   0.2321429   0.0000000), wk =   0.0038265
        k(  159) = (   0.1071429   0.2500000   0.0000000), wk =   0.0038265
        k(  160) = (   0.1071429   0.2678571   0.0000000), wk =   0.0038265
        k(  161) = (   0.1071429   0.2857143   0.0000000), wk =   0.0038265
        k(  162) = (   0.1071429   0.3035714   0.0000000), wk =   0.0038265
        k(  163) = (   0.1071429   0.3214286   0.0000000), wk =   0.0038265
        k(  164) = (   0.1071429   0.3392857   0.0000000), wk =   0.0038265
        k(  165) = (   0.1071429   0.3571429   0.0000000), wk =   0.0038265
        k(  166) = (   0.1071429   0.3750000   0.0000000), wk =   0.0038265
        k(  167) = (   0.1071429   0.3928571   0.0000000), wk =   0.0038265
        k(  168) = (   0.1071429   0.4107143   0.0000000), wk =   0.0038265
        k(  169) = (   0.1071429   0.4285714   0.0000000), wk =   0.0038265
        k(  170) = (   0.1071429   0.4464286   0.0000000), wk =   0.0019133
        k(  171) = (   0.1250000   0.1250000   0.0000000), wk =   0.0019133
        k(  172) = (   0.1250000   0.1428571   0.0000000), wk =   0.0038265
        k(  173) = (   0.1250000   0.1607143   0.0000000), wk =   0.0038265
        k(  174) = (   0.1250000   0.1785714   0.0000000), wk =   0.0038265
        k(  175) = (   0.1250000   0.1964286   0.0000000), wk =   0.0038265
        k(  176) = (   0.1250000   0.2142857   0.0000000), wk =   0.0038265
        k(  177) = (   0.1250000   0.2321429   0.0000000), wk =   0.0038265
        k(  178) = (   0.1250000   0.2500000   0.0000000), wk =   0.0038265
        k(  179) = (   0.1250000   0.2678571   0.0000000), wk =   0.0038265
        k(  180) = (   0.1250000   0.2857143   0.0000000), wk =   0.0038265
        k(  181) = (   0.1250000   0.3035714   0.0000000), wk =   0.0038265
        k(  182) = (   0.1250000   0.3214286   0.0000000), wk =   0.0038265
        k(  183) = (   0.1250000   0.3392857   0.0000000), wk =   0.0038265
        k(  184) = (   0.1250000   0.3571429   0.0000000), wk =   0.0038265
        k(  185) = (   0.1250000   0.3750000   0.0000000), wk =   0.0038265
        k(  186) = (   0.1250000   0.3928571   0.0000000), wk =   0.0038265
        k(  187) = (   0.1250000   0.4107143   0.0000000), wk =   0.0038265
        k(  188) = (   0.1250000   0.4285714   0.0000000), wk =   0.0038265
        k(  189) = (   0.1428571   0.1428571   0.0000000), wk =   0.0019133
        k(  190) = (   0.1428571   0.1607143   0.0000000), wk =   0.0038265
        k(  191) = (   0.1428571   0.1785714   0.0000000), wk =   0.0038265
        k(  192) = (   0.1428571   0.1964286   0.0000000), wk =   0.0038265
        k(  193) = (   0.1428571   0.2142857   0.0000000), wk =   0.0038265
        k(  194) = (   0.1428571   0.2321429   0.0000000), wk =   0.0038265
        k(  195) = (   0.1428571   0.2500000   0.0000000), wk =   0.0038265
        k(  196) = (   0.1428571   0.2678571   0.0000000), wk =   0.0038265
        k(  197) = (   0.1428571   0.2857143   0.0000000), wk =   0.0038265
        k(  198) = (   0.1428571   0.3035714   0.0000000), wk =   0.0038265
        k(  199) = (   0.1428571   0.3214286   0.0000000), wk =   0.0038265
        k(  200) = (   0.1428571   0.3392857   0.0000000), wk =   0.0038265
        k(  201) = (   0.1428571   0.3571429   0.0000000), wk =   0.0038265
        k(  202) = (   0.1428571   0.3750000   0.0000000), wk =   0.0038265
        k(  203) = (   0.1428571   0.3928571   0.0000000), wk =   0.0038265
        k(  204) = (   0.1428571   0.4107143   0.0000000), wk =   0.0038265
        k(  205) = (   0.1428571   0.4285714   0.0000000), wk =   0.0019133
        k(  206) = (   0.1607143   0.1607143   0.0000000), wk =   0.0019133
        k(  207) = (   0.1607143   0.1785714   0.0000000), wk =   0.0038265
        k(  208) = (   0.1607143   0.1964286   0.0000000), wk =   0.0038265
        k(  209) = (   0.1607143   0.2142857   0.0000000), wk =   0.0038265
        k(  210) = (   0.1607143   0.2321429   0.0000000), wk =   0.0038265
        k(  211) = (   0.1607143   0.2500000   0.0000000), wk =   0.0038265
        k(  212) = (   0.1607143   0.2678571   0.0000000), wk =   0.0038265
        k(  213) = (   0.1607143   0.2857143   0.0000000), wk =   0.0038265
        k(  214) = (   0.1607143   0.3035714   0.0000000), wk =   0.0038265
        k(  215) = (   0.1607143   0.3214286   0.0000000), wk =   0.0038265
        k(  216) = (   0.1607143   0.3392857   0.0000000), wk =   0.0038265
        k(  217) = (   0.1607143   0.3571429   0.0000000), wk =   0.0038265
        k(  218) = (   0.1607143   0.3750000   0.0000000), wk =   0.0038265
        k(  219) = (   0.1607143   0.3928571   0.0000000), wk =   0.0038265
        k(  220) = (   0.1607143   0.4107143   0.0000000), wk =   0.0038265
        k(  221) = (   0.1785714   0.1785714   0.0000000), wk =   0.0019133
        k(  222) = (   0.1785714   0.1964286   0.0000000), wk =   0.0038265
        k(  223) = (   0.1785714   0.2142857   0.0000000), wk =   0.0038265
        k(  224) = (   0.1785714   0.2321429   0.0000000), wk =   0.0038265
        k(  225) = (   0.1785714   0.2500000   0.0000000), wk =   0.0038265
        k(  226) = (   0.1785714   0.2678571   0.0000000), wk =   0.0038265
        k(  227) = (   0.1785714   0.2857143   0.0000000), wk =   0.0038265
        k(  228) = (   0.1785714   0.3035714   0.0000000), wk =   0.0038265
        k(  229) = (   0.1785714   0.3214286   0.0000000), wk =   0.0038265
        k(  230) = (   0.1785714   0.3392857   0.0000000), wk =   0.0038265
        k(  231) = (   0.1785714   0.3571429   0.0000000), wk =   0.0038265
        k(  232) = (   0.1785714   0.3750000   0.0000000), wk =   0.0038265
        k(  233) = (   0.1785714   0.3928571   0.0000000), wk =   0.0038265
        k(  234) = (   0.1785714   0.4107143   0.0000000), wk =   0.0019133
        k(  235) = (   0.1964286   0.1964286   0.0000000), wk =   0.0019133
        k(  236) = (   0.1964286   0.2142857   0.0000000), wk =   0.0038265
        k(  237) = (   0.1964286   0.2321429   0.0000000), wk =   0.0038265
        k(  238) = (   0.1964286   0.2500000   0.0000000), wk =   0.0038265
        k(  239) = (   0.1964286   0.2678571   0.0000000), wk =   0.0038265
        k(  240) = (   0.1964286   0.2857143   0.0000000), wk =   0.0038265
        k(  241) = (   0.1964286   0.3035714   0.0000000), wk =   0.0038265
        k(  242) = (   0.1964286   0.3214286   0.0000000), wk =   0.0038265
        k(  243) = (   0.1964286   0.3392857   0.0000000), wk =   0.0038265
        k(  244) = (   0.1964286   0.3571429   0.0000000), wk =   0.0038265
        k(  245) = (   0.1964286   0.3750000   0.0000000), wk =   0.0038265
        k(  246) = (   0.1964286   0.3928571   0.0000000), wk =   0.0038265
        k(  247) = (   0.2142857   0.2142857   0.0000000), wk =   0.0019133
        k(  248) = (   0.2142857   0.2321429   0.0000000), wk =   0.0038265
        k(  249) = (   0.2142857   0.2500000   0.0000000), wk =   0.0038265
        k(  250) = (   0.2142857   0.2678571   0.0000000), wk =   0.0038265
        k(  251) = (   0.2142857   0.2857143   0.0000000), wk =   0.0038265
        k(  252) = (   0.2142857   0.3035714   0.0000000), wk =   0.0038265
        k(  253) = (   0.2142857   0.3214286   0.0000000), wk =   0.0038265
        k(  254) = (   0.2142857   0.3392857   0.0000000), wk =   0.0038265
        k(  255) = (   0.2142857   0.3571429   0.0000000), wk =   0.0038265
        k(  256) = (   0.2142857   0.3750000   0.0000000), wk =   0.0038265
        k(  257) = (   0.2142857   0.3928571   0.0000000), wk =   0.0019133
        k(  258) = (   0.2321429   0.2321429   0.0000000), wk =   0.0019133
        k(  259) = (   0.2321429   0.2500000   0.0000000), wk =   0.0038265
        k(  260) = (   0.2321429   0.2678571   0.0000000), wk =   0.0038265
        k(  261) = (   0.2321429   0.2857143   0.0000000), wk =   0.0038265
        k(  262) = (   0.2321429   0.3035714   0.0000000), wk =   0.0038265
        k(  263) = (   0.2321429   0.3214286   0.0000000), wk =   0.0038265
        k(  264) = (   0.2321429   0.3392857   0.0000000), wk =   0.0038265
        k(  265) = (   0.2321429   0.3571429   0.0000000), wk =   0.0038265
        k(  266) = (   0.2321429   0.3750000   0.0000000), wk =   0.0038265
        k(  267) = (   0.2500000   0.2500000   0.0000000), wk =   0.0019133
        k(  268) = (   0.2500000   0.2678571   0.0000000), wk =   0.0038265
        k(  269) = (   0.2500000   0.2857143   0.0000000), wk =   0.0038265
        k(  270) = (   0.2500000   0.3035714   0.0000000), wk =   0.0038265
        k(  271) = (   0.2500000   0.3214286   0.0000000), wk =   0.0038265
        k(  272) = (   0.2500000   0.3392857   0.0000000), wk =   0.0038265
        k(  273) = (   0.2500000   0.3571429   0.0000000), wk =   0.0038265
        k(  274) = (   0.2500000   0.3750000   0.0000000), wk =   0.0019133
        k(  275) = (   0.2678571   0.2678571   0.0000000), wk =   0.0019133
        k(  276) = (   0.2678571   0.2857143   0.0000000), wk =   0.0038265
        k(  277) = (   0.2678571   0.3035714   0.0000000), wk =   0.0038265
        k(  278) = (   0.2678571   0.3214286   0.0000000), wk =   0.0038265
        k(  279) = (   0.2678571   0.3392857   0.0000000), wk =   0.0038265
        k(  280) = (   0.2678571   0.3571429   0.0000000), wk =   0.0038265
        k(  281) = (   0.2857143   0.2857143   0.0000000), wk =   0.0019133
        k(  282) = (   0.2857143   0.3035714   0.0000000), wk =   0.0038265
        k(  283) = (   0.2857143   0.3214286   0.0000000), wk =   0.0038265
        k(  284) = (   0.2857143   0.3392857   0.0000000), wk =   0.0038265
        k(  285) = (   0.2857143   0.3571429   0.0000000), wk =   0.0019133
        k(  286) = (   0.3035714   0.3035714   0.0000000), wk =   0.0019133
        k(  287) = (   0.3035714   0.3214286   0.0000000), wk =   0.0038265
        k(  288) = (   0.3035714   0.3392857   0.0000000), wk =   0.0038265
        k(  289) = (   0.3214286   0.3214286   0.0000000), wk =   0.0019133
        k(  290) = (   0.3214286   0.3392857   0.0000000), wk =   0.0019133

     Dense  grid:   144463 G-vectors     FFT dimensions: (  40,  40, 225)

     Dynamical RAM for                 wfc:       0.46 MB

     Dynamical RAM for     wfc (w. buffer):      22.95 MB

     Dynamical RAM for           str. fact:       0.05 MB

     Dynamical RAM for           local pot:       0.00 MB

     Dynamical RAM for          nlocal pot:       0.26 MB

     Dynamical RAM for                qrad:      22.48 MB

     Dynamical RAM for          rho,v,vnew:       0.63 MB

     Dynamical RAM for               rhoin:       0.21 MB

     Dynamical RAM for            rho*nmix:       1.51 MB

     Dynamical RAM for           G-vectors:       0.10 MB

     Dynamical RAM for          h,s,v(r/c):       1.17 MB

     Dynamical RAM for          <psi|beta>:       0.22 MB

     Dynamical RAM for                 psi:       0.92 MB

     Dynamical RAM for                hpsi:       0.92 MB

     Dynamical RAM for      wfcinit/wfcrot:       0.84 MB

     Estimated static dynamical RAM per process >      46.98 MB

     Estimated max dynamical RAM per process >      51.72 MB

     Estimated total dynamical RAM >      28.38 GB
 ----2D----2D----2D----2D----2D----2D----2D----2D----2D----2D----2D----2D
  The code is running with the 2D cutoff
  Please refer to:
  Sohier, T., Calandra, M., & Mauri, F. (2017), 
  Density functional perturbation theory for gated two-dimensional heterostructu
 res:
  Theoretical developments and application to flexural phonons in graphene.
  Physical Review B, 96(7), 75448. https://doi.org/10.1103/PhysRevB.96.075448
 ----2D----2D----2D----2D----2D----2D----2D----2D----2D----2D----2D----2D

     Initial potential from superposition of free atoms

     starting charge      39.9994, renormalised to      40.0000

     negative rho (up, down):  5.540E-07 0.000E+00
     Starting wfcs are   50 randomized atomic wfcs +   30 random wfcs

     total cpu time spent up to now is        4.6 secs

     Self-consistent Calculation

     iteration #  1     ecut=   100.00 Ry     beta= 0.70
     Davidson diagonalization with overlap

---- Real-time Memory Report at c_bands before calling an iterative solver
             0 MiB given to the printing process from OS
             0 MiB allocation reported by mallinfo(arena+hblkhd)
        372398 MiB available memory on the node where the printing process lives
------------------
     ethr =  1.00E-02,  avg # of iterations =  8.5

     Threshold (ethr) on eigenvalues was too large:
     Diagonalizing with lowered threshold

     Davidson diagonalization with overlap

---- Real-time Memory Report at c_bands before calling an iterative solver
             0 MiB given to the printing process from OS
             0 MiB allocation reported by mallinfo(arena+hblkhd)
        372012 MiB available memory on the node where the printing process lives
------------------
     ethr =  2.66E-04,  avg # of iterations =  3.6

     total cpu time spent up to now is       41.7 secs

     total energy              =    -584.97192379 Ry
     estimated scf accuracy    <       0.10695981 Ry

     iteration #  2     ecut=   100.00 Ry     beta= 0.70
     Davidson diagonalization with overlap

---- Real-time Memory Report at c_bands before calling an iterative solver
             0 MiB given to the printing process from OS
             0 MiB allocation reported by mallinfo(arena+hblkhd)
        371966 MiB available memory on the node where the printing process lives
------------------
     ethr =  2.67E-04,  avg # of iterations =  5.3

     total cpu time spent up to now is       59.0 secs

     total energy              =    -584.97005053 Ry
     estimated scf accuracy    <       0.13261152 Ry

     iteration #  3     ecut=   100.00 Ry     beta= 0.70
     Davidson diagonalization with overlap

---- Real-time Memory Report at c_bands before calling an iterative solver
             0 MiB given to the printing process from OS
             0 MiB allocation reported by mallinfo(arena+hblkhd)
        371932 MiB available memory on the node where the printing process lives
------------------
     ethr =  2.67E-04,  avg # of iterations =  2.2

     total cpu time spent up to now is       70.7 secs

     total energy              =    -584.99536169 Ry
     estimated scf accuracy    <       0.09786627 Ry

     iteration #  4     ecut=   100.00 Ry     beta= 0.70
     Davidson diagonalization with overlap

---- Real-time Memory Report at c_bands before calling an iterative solver
             0 MiB given to the printing process from OS
             0 MiB allocation reported by mallinfo(arena+hblkhd)
        371919 MiB available memory on the node where the printing process lives
------------------
     ethr =  2.45E-04,  avg # of iterations =  1.4

     total cpu time spent up to now is       81.3 secs

     total energy              =    -585.00982893 Ry
     estimated scf accuracy    <       0.00076534 Ry

     iteration #  5     ecut=   100.00 Ry     beta= 0.70
     Davidson diagonalization with overlap

---- Real-time Memory Report at c_bands before calling an iterative solver
             0 MiB given to the printing process from OS
             0 MiB allocation reported by mallinfo(arena+hblkhd)
        371903 MiB available memory on the node where the printing process lives
------------------
     ethr =  1.91E-06,  avg # of iterations =  9.6

     total cpu time spent up to now is      104.4 secs

     total energy              =    -585.00995139 Ry
     estimated scf accuracy    <       0.00000608 Ry

     iteration #  6     ecut=   100.00 Ry     beta= 0.70
     Davidson diagonalization with overlap

---- Real-time Memory Report at c_bands before calling an iterative solver
             0 MiB given to the printing process from OS
             0 MiB allocation reported by mallinfo(arena+hblkhd)
        371863 MiB available memory on the node where the printing process lives
------------------
     ethr =  1.52E-08,  avg # of iterations =  3.4

     total cpu time spent up to now is      117.9 secs

     total energy              =    -585.00995373 Ry
     estimated scf accuracy    <       0.00000035 Ry

     iteration #  7     ecut=   100.00 Ry     beta= 0.70
     Davidson diagonalization with overlap

---- Real-time Memory Report at c_bands before calling an iterative solver
             0 MiB given to the printing process from OS
             0 MiB allocation reported by mallinfo(arena+hblkhd)
        371862 MiB available memory on the node where the printing process lives
------------------
     ethr =  8.74E-10,  avg # of iterations =  2.9

     total cpu time spent up to now is      129.7 secs

     total energy              =    -585.00995380 Ry
     estimated scf accuracy    <       0.00000002 Ry

     iteration #  8     ecut=   100.00 Ry     beta= 0.70
     Davidson diagonalization with overlap

---- Real-time Memory Report at c_bands before calling an iterative solver
             0 MiB given to the printing process from OS
             0 MiB allocation reported by mallinfo(arena+hblkhd)
        371853 MiB available memory on the node where the printing process lives
------------------
     ethr =  4.93E-11,  avg # of iterations =  3.6

     total cpu time spent up to now is      142.8 secs

     total energy              =    -585.00995381 Ry
     estimated scf accuracy    <          2.3E-10 Ry

     iteration #  9     ecut=   100.00 Ry     beta= 0.70
     Davidson diagonalization with overlap

---- Real-time Memory Report at c_bands before calling an iterative solver
             0 MiB given to the printing process from OS
             0 MiB allocation reported by mallinfo(arena+hblkhd)
        371840 MiB available memory on the node where the printing process lives
------------------
     ethr =  5.72E-13,  avg # of iterations =  4.0

     total cpu time spent up to now is      157.6 secs

     total energy              =    -585.00995381 Ry
     estimated scf accuracy    <          1.2E-11 Ry

     iteration # 10     ecut=   100.00 Ry     beta= 0.70
     Davidson diagonalization with overlap

---- Real-time Memory Report at c_bands before calling an iterative solver
             0 MiB given to the printing process from OS
             0 MiB allocation reported by mallinfo(arena+hblkhd)
        371821 MiB available memory on the node where the printing process lives
------------------
     ethr =  1.00E-13,  avg # of iterations =  2.0

     total cpu time spent up to now is      167.9 secs

     End of self-consistent calculation

          k = 0.0000 0.0000 0.0000 ( 18181 PWs)   bands (ev):

   -79.5420 -79.5420 -50.9322 -50.9322 -41.2096 -41.2096 -41.0656 -41.0656
   -35.0506 -35.0506 -35.0386 -35.0386 -34.9808 -34.9808 -32.8222 -32.8222
   -32.8111 -32.8111 -32.7736 -32.7736 -32.7412 -32.7412 -20.4242 -20.4242
   -18.8158 -18.8158 -12.0131 -12.0131  -8.6801  -8.6801  -8.4160  -8.4160
    -7.8205  -7.8205  -7.4266  -7.4266  -7.2096  -7.2096  -5.7205  -5.7205
    -2.9216  -2.9216  -2.8961  -2.8961  -2.6128  -2.6128  -2.6002  -2.6002
    -0.6661  -0.6661   0.0337   0.0337   0.2370   0.2370   2.9062   2.9062
     3.7689   3.7689   4.1755   4.1755   4.6992   4.6992   5.0019   5.0019
     6.6943   6.6943   7.1148   7.1148   7.1463   7.1463   8.6665   8.6665
     9.5021   9.5021  10.1435  10.1436  10.4747  10.4747  10.5191  10.5191

     occupation numbers 
     1.0000   1.0000   1.0000   1.0000   1.0000   1.0000   1.0000   1.0000
     1.0000   1.0000   1.0000   1.0000   1.0000   1.0000   1.0000   1.0000
     1.0000   1.0000   1.0000   1.0000   1.0000   1.0000   1.0000   1.0000
     1.0000   1.0000   1.0000   1.0000   1.0000   1.0000   1.0000   1.0000
     1.0000   1.0000   1.0000   1.0000   1.0000   1.0000   1.0000   1.0000
     0.0000   0.0000   0.0000   0.0000   0.0000   0.0000   0.0000   0.0000
     0.0000   0.0000   0.0000   0.0000   0.0000   0.0000   0.0000   0.0000
     0.0000   0.0000   0.0000   0.0000   0.0000   0.0000   0.0000   0.0000
     0.0000   0.0000   0.0000   0.0000   0.0000   0.0000   0.0000   0.0000
     0.0000   0.0000   0.0000   0.0000   0.0000   0.0000   0.0000   0.0000

          k = 0.0000 0.0206 0.0000 ( 18171 PWs)   bands (ev):

   -79.5420 -79.5420 -50.9324 -50.9324 -41.2097 -41.2097 -41.0665 -41.0665
   -35.0506 -35.0506 -35.0386 -35.0386 -34.9808 -34.9808 -32.8222 -32.8222
   -32.8112 -32.8112 -32.7736 -32.7736 -32.7412 -32.7412 -20.4190 -20.4190
   -18.8138 -18.8138 -12.0067 -12.0067  -8.6850  -8.6850  -8.4206  -8.4206
    -7.8483  -7.8483  -7.4186  -7.4186  -7.2074  -7.2074  -5.7230  -5.7230
    -2.9232  -2.9232  -2.8987  -2.8987  -2.6227  -2.6227  -2.6022  -2.6022
    -0.6439  -0.6439   0.0400   0.0400   0.2499   0.2499   2.9299   2.9299
     3.7720   3.7720   4.1805   4.1805   4.6960   4.6960   4.9985   4.9985
     6.7105   6.7105   7.0786   7.0786   7.1343   7.1343   8.6676   8.6676
     9.5071   9.5071  10.1871  10.1871  10.4499  10.4499  10.5138  10.5138

     occupation numbers 
     1.0000   1.0000   1.0000   1.0000   1.0000   1.0000   1.0000   1.0000
     1.0000   1.0000   1.0000   1.0000   1.0000   1.0000   1.0000   1.0000
     1.0000   1.0000   1.0000   1.0000   1.0000   1.0000   1.0000   1.0000
     1.0000   1.0000   1.0000   1.0000   1.0000   1.0000   1.0000   1.0000
     1.0000   1.0000   1.0000   1.0000   1.0000   1.0000   1.0000   1.0000
     0.0000   0.0000   0.0000   0.0000   0.0000   0.0000   0.0000   0.0000
     0.0000   0.0000   0.0000   0.0000   0.0000   0.0000   0.0000   0.0000
     0.0000   0.0000   0.0000   0.0000   0.0000   0.0000   0.0000   0.0000
     0.0000   0.0000   0.0000   0.0000   0.0000   0.0000   0.0000   0.0000
     0.0000   0.0000   0.0000   0.0000   0.0000   0.0000   0.0000   0.0000

          k = 0.0000 0.0412 0.0000 ( 18163 PWs)   bands (ev):

   -79.5418 -79.5418 -50.9330 -50.9330 -41.2100 -41.2100 -41.0690 -41.0690
   -35.0506 -35.0506 -35.0386 -35.0386 -34.9808 -34.9808 -32.8222 -32.8222
   -32.8112 -32.8112 -32.7736 -32.7736 -32.7412 -32.7412 -20.4033 -20.4033
   -18.8080 -18.8080 -11.9877 -11.9877  -8.7036  -8.7036  -8.4300  -8.4300
    -7.9202  -7.9202  -7.4105  -7.4105  -7.1960  -7.1960  -5.7307  -5.7307
    -2.9435  -2.9435  -2.8935  -2.8935  -2.6510  -2.6510  -2.6043  -2.6043
    -0.5802  -0.5802   0.0588   0.0588   0.2891   0.2891   2.9998   2.9998
     3.7802   3.7802   4.1954   4.1954   4.6771   4.6771   5.0025   5.0025
     6.7493   6.7493   6.9548   6.9548   7.1302   7.1302   8.6707   8.6707
     9.5156   9.5156  10.2229  10.2229  10.4447  10.4448  10.5374  10.5374

     occupation numbers 
     1.0000   1.0000   1.0000   1.0000   1.0000   1.0000   1.0000   1.0000
     1.0000   1.0000   1.0000   1.0000   1.0000   1.0000   1.0000   1.0000
     1.0000   1.0000   1.0000   1.0000   1.0000   1.0000   1.0000   1.0000
     1.0000   1.0000   1.0000   1.0000   1.0000   1.0000   1.0000   1.0000
     1.0000   1.0000   1.0000   1.0000   1.0000   1.0000   1.0000   1.0000
     0.0000   0.0000   0.0000   0.0000   0.0000   0.0000   0.0000   0.0000
     0.0000   0.0000   0.0000   0.0000   0.0000   0.0000   0.0000   0.0000
     0.0000   0.0000   0.0000   0.0000   0.0000   0.0000   0.0000   0.0000
     0.0000   0.0000   0.0000   0.0000   0.0000   0.0000   0.0000   0.0000
     0.0000   0.0000   0.0000   0.0000   0.0000   0.0000   0.0000   0.0000

          k = 0.0000 0.0619 0.0000 ( 18153 PWs)   bands (ev):

   -79.5415 -79.5415 -50.9340 -50.9340 -41.2105 -41.2105 -41.0731 -41.0731
   -35.0506 -35.0506 -35.0386 -35.0386 -34.9808 -34.9808 -32.8221 -32.8221
   -32.8113 -32.8113 -32.7737 -32.7737 -32.7412 -32.7412 -20.3773 -20.3773
   -18.7983 -18.7983 -11.9563 -11.9563  -8.7450  -8.7450  -8.4337  -8.4337
    -8.0180  -8.0180  -7.4250  -7.4250  -7.1702  -7.1702  -5.7442  -5.7442
    -2.9857  -2.9857  -2.8850  -2.8850  -2.6905  -2.6905  -2.5982  -2.5982
    -0.4823  -0.4823   0.0900   0.0900   0.3565   0.3565   3.1116   3.1116
     3.7903   3.7903   4.2197   4.2197   4.6288   4.6288   5.0404   5.0404
     6.7097   6.7097   6.8625   6.8625   7.1297   7.1297   8.6753   8.6753
     9.5091   9.5091  10.0992  10.0992  10.5496  10.5497  10.6090  10.6096

     occupation numbers 
     1.0000   1.0000   1.0000   1.0000   1.0000   1.0000   1.0000   1.0000
     1.0000   1.0000   1.0000   1.0000   1.0000   1.0000   1.0000   1.0000
     1.0000   1.0000   1.0000   1.0000   1.0000   1.0000   1.0000   1.0000
     1.0000   1.0000   1.0000   1.0000   1.0000   1.0000   1.0000   1.0000
     1.0000   1.0000   1.0000   1.0000   1.0000   1.0000   1.0000   1.0000
     0.0000   0.0000   0.0000   0.0000   0.0000   0.0000   0.0000   0.0000
     0.0000   0.0000   0.0000   0.0000   0.0000   0.0000   0.0000   0.0000
     0.0000   0.0000   0.0000   0.0000   0.0000   0.0000   0.0000   0.0000
     0.0000   0.0000   0.0000   0.0000   0.0000   0.0000   0.0000   0.0000
     0.0000   0.0000   0.0000   0.0000   0.0000   0.0000   0.0000   0.0000

          k = 0.0000 0.0825 0.0000 ( 18163 PWs)   bands (ev):

   -79.5412 -79.5412 -50.9353 -50.9353 -41.2114 -41.2114 -41.0787 -41.0787
   -35.0506 -35.0506 -35.0386 -35.0386 -34.9808 -34.9808 -32.8220 -32.8220
   -32.8114 -32.8114 -32.7737 -32.7737 -32.7411 -32.7411 -20.3412 -20.3412
   -18.7848 -18.7848 -11.9129 -11.9129  -8.8162  -8.8162  -8.4234  -8.4234
    -8.1299  -8.1299  -7.4657  -7.4657  -7.1367  -7.1367  -5.7647  -5.7647
    -3.0441  -3.0441  -2.8879  -2.8879  -2.7332  -2.7332  -2.5718  -2.5718
    -0.3608  -0.3608   0.1333   0.1333   0.4550   0.4550   3.2585   3.2585
     3.7964   3.7964   4.2525   4.2525   4.5592   4.5592   5.1203   5.1203
     6.4977   6.4977   6.9086   6.9086   7.1323   7.1323   8.6802   8.6802
     9.4523   9.4523   9.9734   9.9734  10.4706  10.4706  10.6564  10.6568

     occupation numbers 
     1.0000   1.0000   1.0000   1.0000   1.0000   1.0000   1.0000   1.0000
     1.0000   1.0000   1.0000   1.0000   1.0000   1.0000   1.0000   1.0000
     1.0000   1.0000   1.0000   1.0000   1.0000   1.0000   1.0000   1.0000
     1.0000   1.0000   1.0000   1.0000   1.0000   1.0000   1.0000   1.0000
     1.0000   1.0000   1.0000   1.0000   1.0000   1.0000   1.0000   1.0000
     0.0000   0.0000   0.0000   0.0000   0.0000   0.0000   0.0000   0.0000
     0.0000   0.0000   0.0000   0.0000   0.0000   0.0000   0.0000   0.0000
     0.0000   0.0000   0.0000   0.0000   0.0000   0.0000   0.0000   0.0000
     0.0000   0.0000   0.0000   0.0000   0.0000   0.0000   0.0000   0.0000
     0.0000   0.0000   0.0000   0.0000   0.0000   0.0000   0.0000   0.0000

          k = 0.0000 0.1031 0.0000 ( 18139 PWs)   bands (ev):

   -79.5407 -79.5407 -50.9370 -50.9370 -41.2125 -41.2125 -41.0857 -41.0857
   -35.0507 -35.0507 -35.0386 -35.0386 -34.9808 -34.9808 -32.8219 -32.8219
   -32.8115 -32.8115 -32.7738 -32.7738 -32.7411 -32.7411 -20.2952 -20.2952
   -18.7676 -18.7676 -11.8580 -11.8580  -8.9155  -8.9155  -8.4013  -8.4013
    -8.2467  -8.2467  -7.5261  -7.5261  -7.1063  -7.1063  -5.7937  -5.7937
    -3.1152  -3.1152  -2.9037  -2.9037  -2.7758  -2.7758  -2.5187  -2.5187
    -0.2274  -0.2274   0.1883   0.1883   0.5883   0.5883   3.4289   3.4289
     3.7914   3.7914   4.2921   4.2921   4.4925   4.4925   5.2357   5.2357
     6.2575   6.2575   6.9578   6.9578   7.1389   7.1389   8.6832   8.6832
     9.3116   9.3116   9.9234   9.9234  10.3361  10.3361  10.6330  10.6330

     occupation numbers 
     1.0000   1.0000   1.0000   1.0000   1.0000   1.0000   1.0000   1.0000
     1.0000   1.0000   1.0000   1.0000   1.0000   1.0000   1.0000   1.0000
     1.0000   1.0000   1.0000   1.0000   1.0000   1.0000   1.0000   1.0000
     1.0000   1.0000   1.0000   1.0000   1.0000   1.0000   1.0000   1.0000
     1.0000   1.0000   1.0000   1.0000   1.0000   1.0000   1.0000   1.0000
     0.0000   0.0000   0.0000   0.0000   0.0000   0.0000   0.0000   0.0000
     0.0000   0.0000   0.0000   0.0000   0.0000   0.0000   0.0000   0.0000
     0.0000   0.0000   0.0000   0.0000   0.0000   0.0000   0.0000   0.0000
     0.0000   0.0000   0.0000   0.0000   0.0000   0.0000   0.0000   0.0000
     0.0000   0.0000   0.0000   0.0000   0.0000   0.0000   0.0000   0.0000

          k = 0.0000 0.1237 0.0000 ( 18123 PWs)   bands (ev):

   -79.5402 -79.5402 -50.9390 -50.9390 -41.2141 -41.2141 -41.0938 -41.0938
   -35.0507 -35.0507 -35.0385 -35.0385 -34.9808 -34.9808 -32.8217 -32.8217
   -32.8116 -32.8116 -32.7739 -32.7739 -32.7411 -32.7411 -20.2396 -20.2396
   -18.7468 -18.7468 -11.7924 -11.7924  -9.0375  -9.0375  -8.4169  -8.4169
    -8.3186  -8.3186  -7.6003  -7.6003  -7.0862  -7.0862  -5.8326  -5.8326
    -3.1940  -3.1940  -2.9220  -2.9220  -2.8187  -2.8187  -2.4427  -2.4427
    -0.0924  -0.0924   0.2547   0.2547   0.7580   0.7580   3.5943   3.5943
     3.7811   3.7811   4.3361   4.3361   4.4513   4.4513   5.3798   5.3798
     6.0228   6.0228   6.9865   6.9865   7.1493   7.1493   8.6790   8.6790
     9.1142   9.1142   9.9363   9.9363  10.1839  10.1839  10.5737  10.5738

     occupation numbers 
     1.0000   1.0000   1.0000   1.0000   1.0000   1.0000   1.0000   1.0000
     1.0000   1.0000   1.0000   1.0000   1.0000   1.0000   1.0000   1.0000
     1.0000   1.0000   1.0000   1.0000   1.0000   1.0000   1.0000   1.0000
     1.0000   1.0000   1.0000   1.0000   1.0000   1.0000   1.0000   1.0000
     1.0000   1.0000   1.0000   1.0000   1.0000   1.0000   1.0000   1.0000
     0.0000   0.0000   0.0000   0.0000   0.0000   0.0000   0.0000   0.0000
     0.0000   0.0000   0.0000   0.0000   0.0000   0.0000   0.0000   0.0000
     0.0000   0.0000   0.0000   0.0000   0.0000   0.0000   0.0000   0.0000
     0.0000   0.0000   0.0000   0.0000   0.0000   0.0000   0.0000   0.0000
     0.0000   0.0000   0.0000   0.0000   0.0000   0.0000   0.0000   0.0000

          k = 0.0000 0.1443 0.0000 ( 18105 PWs)   bands (ev):

   -79.5396 -79.5396 -50.9413 -50.9413 -41.2162 -41.2162 -41.1029 -41.1029
   -35.0507 -35.0507 -35.0385 -35.0385 -34.9809 -34.9809 -32.8215 -32.8215
   -32.8118 -32.8118 -32.7740 -32.7740 -32.7410 -32.7410 -20.1748 -20.1748
   -18.7227 -18.7227 -11.7171 -11.7171  -9.1762  -9.1762  -8.5333  -8.5333
    -8.2835  -8.2835  -7.6841  -7.6841  -7.0799  -7.0799  -5.8832  -5.8832
    -3.2737  -3.2737  -2.9344  -2.9344  -2.8602  -2.8602  -2.3506  -2.3506
     0.0380   0.0380   0.3320   0.3320   0.9612   0.9612   3.6386   3.6386
     3.8593   3.8593   4.3813   4.3813   4.4495   4.4495   5.5470   5.5470
     5.8168   5.8168   6.9880   6.9880   7.1639   7.1639   8.6519   8.6519
     8.9113   8.9113   9.9288   9.9288  10.0741  10.0741  10.5185  10.5185

     occupation numbers 
     1.0000   1.0000   1.0000   1.0000   1.0000   1.0000   1.0000   1.0000
     1.0000   1.0000   1.0000   1.0000   1.0000   1.0000   1.0000   1.0000
     1.0000   1.0000   1.0000   1.0000   1.0000   1.0000   1.0000   1.0000
     1.0000   1.0000   1.0000   1.0000   1.0000   1.0000   1.0000   1.0000
     1.0000   1.0000   1.0000   1.0000   1.0000   1.0000   1.0000   1.0000
     0.0000   0.0000   0.0000   0.0000   0.0000   0.0000   0.0000   0.0000
     0.0000   0.0000   0.0000   0.0000   0.0000   0.0000   0.0000   0.0000
     0.0000   0.0000   0.0000   0.0000   0.0000   0.0000   0.0000   0.0000
     0.0000   0.0000   0.0000   0.0000   0.0000   0.0000   0.0000   0.0000
     0.0000   0.0000   0.0000   0.0000   0.0000   0.0000   0.0000   0.0000

          k = 0.0000 0.1650 0.0000 ( 18095 PWs)   bands (ev):

   -79.5389 -79.5389 -50.9439 -50.9439 -41.2189 -41.2189 -41.1126 -41.1126
   -35.0507 -35.0507 -35.0385 -35.0385 -34.9809 -34.9809 -32.8213 -32.8213
   -32.8119 -32.8119 -32.7741 -32.7741 -32.7410 -32.7410 -20.1014 -20.1014
   -18.6953 -18.6953 -11.6335 -11.6335  -9.3266  -9.3266  -8.6685  -8.6685
    -8.2253  -8.2253  -7.7740  -7.7740  -7.0885  -7.0885  -5.9466  -5.9466
    -3.3478  -3.3478  -2.9461  -2.9461  -2.8878  -2.8878  -2.2483  -2.2483
     0.1621   0.1621   0.4197   0.4197   1.1892   1.1892   3.5743   3.5743
     3.9863   3.9863   4.4266   4.4266   4.4930   4.4930   5.6621   5.6621
     5.7363   5.7363   6.9578   6.9578   7.1873   7.1873   8.5577   8.5577
     8.7632   8.7632   9.7772   9.7772  10.1197  10.1197  10.4814  10.4814

     occupation numbers 
     1.0000   1.0000   1.0000   1.0000   1.0000   1.0000   1.0000   1.0000
     1.0000   1.0000   1.0000   1.0000   1.0000   1.0000   1.0000   1.0000
     1.0000   1.0000   1.0000   1.0000   1.0000   1.0000   1.0000   1.0000
     1.0000   1.0000   1.0000   1.0000   1.0000   1.0000   1.0000   1.0000
     1.0000   1.0000   1.0000   1.0000   1.0000   1.0000   1.0000   1.0000
     0.0000   0.0000   0.0000   0.0000   0.0000   0.0000   0.0000   0.0000
     0.0000   0.0000   0.0000   0.0000   0.0000   0.0000   0.0000   0.0000
     0.0000   0.0000   0.0000   0.0000   0.0000   0.0000   0.0000   0.0000
[...]
     7.8857   7.9305   8.1232   8.1315   8.8207   8.8486   9.6239   9.6395

     occupation numbers 
     1.0000   1.0000   1.0000   1.0000   1.0000   1.0000   1.0000   1.0000
     1.0000   1.0000   1.0000   1.0000   1.0000   1.0000   1.0000   1.0000
     1.0000   1.0000   1.0000   1.0000   1.0000   1.0000   1.0000   1.0000
     1.0000   1.0000   1.0000   1.0000   1.0000   1.0000   1.0000   1.0000
     1.0000   1.0000   1.0000   1.0000   1.0000   1.0000   1.0000   1.0000
     0.0000   0.0000   0.0000   0.0000   0.0000   0.0000   0.0000   0.0000
     0.0000   0.0000   0.0000   0.0000   0.0000   0.0000   0.0000   0.0000
     0.0000   0.0000   0.0000   0.0000   0.0000   0.0000   0.0000   0.0000
     0.0000   0.0000   0.0000   0.0000   0.0000   0.0000   0.0000   0.0000
     0.0000   0.0000   0.0000   0.0000   0.0000   0.0000   0.0000   0.0000

          k = 0.2857 0.5774 0.0000 ( 18042 PWs)   bands (ev):

   -79.5236 -79.5236 -51.0058 -50.9973 -41.3819 -41.3381 -41.2474 -41.2337
   -35.0514 -35.0509 -35.0389 -35.0375 -34.9814 -34.9812 -32.8198 -32.8174
   -32.8146 -32.8133 -32.7766 -32.7761 -32.7398 -32.7397 -18.1488 -17.9477
   -17.9273 -17.9135 -11.4177 -11.3673 -11.1725 -11.1057 -10.2075  -9.9821
    -9.5514  -9.5298  -8.9741  -8.9230  -8.0767  -8.0173  -5.9824  -5.5761
    -3.8422  -3.7825  -2.3734  -2.3598  -1.8795  -1.5070  -0.4181  -0.1554
     0.7371   0.8185   1.4394   1.8045   3.5595   3.5974   4.3357   4.4780
     5.2285   5.2415   5.4192   5.4351   5.6059   5.6372   6.1387   6.1535
     6.1900   6.2297   6.9987   7.1621   7.2191   7.2507   7.6456   7.6483
     7.8630   7.9054   8.1071   8.1233   8.7856   8.8145   9.6210   9.6349

     occupation numbers 
     1.0000   1.0000   1.0000   1.0000   1.0000   1.0000   1.0000   1.0000
     1.0000   1.0000   1.0000   1.0000   1.0000   1.0000   1.0000   1.0000
     1.0000   1.0000   1.0000   1.0000   1.0000   1.0000   1.0000   1.0000
     1.0000   1.0000   1.0000   1.0000   1.0000   1.0000   1.0000   1.0000
     1.0000   1.0000   1.0000   1.0000   1.0000   1.0000   1.0000   1.0000
     0.0000   0.0000   0.0000   0.0000   0.0000   0.0000   0.0000   0.0000
     0.0000   0.0000   0.0000   0.0000   0.0000   0.0000   0.0000   0.0000
     0.0000   0.0000   0.0000   0.0000   0.0000   0.0000   0.0000   0.0000
     0.0000   0.0000   0.0000   0.0000   0.0000   0.0000   0.0000   0.0000
     0.0000   0.0000   0.0000   0.0000   0.0000   0.0000   0.0000   0.0000

          k = 0.3036 0.5258 0.0000 ( 18036 PWs)   bands (ev):

   -79.5237 -79.5237 -51.0054 -50.9969 -41.3806 -41.3376 -41.2460 -41.2330
   -35.0514 -35.0509 -35.0389 -35.0375 -34.9814 -34.9812 -32.8198 -32.8174
   -32.8146 -32.8133 -32.7766 -32.7760 -32.7398 -32.7397 -18.1671 -17.9691
   -17.9346 -17.9207 -11.3908 -11.3405 -11.1938 -11.1313 -10.1463  -9.9180
    -9.5610  -9.5417  -8.9977  -8.9485  -8.0382  -7.9839  -6.0271  -5.6348
    -3.7905  -3.7189  -2.3870  -2.3567  -1.9261  -1.5775  -0.4293  -0.1721
     0.8330   0.8889   1.4205   1.8134   3.4919   3.5268   4.1967   4.3091
     5.0611   5.0613   5.5851   5.5922   5.7820   5.7824   6.1164   6.1425
     6.2226   6.2744   6.9309   7.0568   7.1358   7.1561   7.6499   7.6506
     7.9188   7.9634   8.1320   8.1326   8.9377   8.9656   9.5740   9.5939

     occupation numbers 
     1.0000   1.0000   1.0000   1.0000   1.0000   1.0000   1.0000   1.0000
     1.0000   1.0000   1.0000   1.0000   1.0000   1.0000   1.0000   1.0000
     1.0000   1.0000   1.0000   1.0000   1.0000   1.0000   1.0000   1.0000
     1.0000   1.0000   1.0000   1.0000   1.0000   1.0000   1.0000   1.0000
     1.0000   1.0000   1.0000   1.0000   1.0000   1.0000   1.0000   1.0000
     0.0000   0.0000   0.0000   0.0000   0.0000   0.0000   0.0000   0.0000
     0.0000   0.0000   0.0000   0.0000   0.0000   0.0000   0.0000   0.0000
     0.0000   0.0000   0.0000   0.0000   0.0000   0.0000   0.0000   0.0000
     0.0000   0.0000   0.0000   0.0000   0.0000   0.0000   0.0000   0.0000
     0.0000   0.0000   0.0000   0.0000   0.0000   0.0000   0.0000   0.0000

          k = 0.3036 0.5464 0.0000 ( 18031 PWs)   bands (ev):

   -79.5236 -79.5236 -51.0059 -50.9973 -41.3815 -41.3370 -41.2486 -41.2344
   -35.0514 -35.0509 -35.0389 -35.0375 -34.9814 -34.9812 -32.8198 -32.8174
   -32.8146 -32.8133 -32.7766 -32.7761 -32.7398 -32.7397 -18.1487 -17.9468
   -17.9262 -17.9126 -11.4212 -11.3704 -11.1359 -11.0779 -10.2356  -9.9666
    -9.6037  -9.5452  -8.9723  -8.9219  -8.0788  -8.0178  -5.9777  -5.5695
    -3.8536  -3.7989  -2.3820  -2.3718  -1.8818  -1.5098  -0.3995  -0.1342
     0.8391   0.8963   1.3353   1.7245   3.5446   3.5828   4.3479   4.4737
     5.2295   5.2334   5.5921   5.5937   5.7545   5.7676   6.0779   6.0900
     6.1211   6.1616   6.9467   7.0432   7.2265   7.2514   7.6606   7.6606
     7.8660   7.9162   8.0166   8.0315   8.8508   8.8865   9.5213   9.5328

     occupation numbers 
     1.0000   1.0000   1.0000   1.0000   1.0000   1.0000   1.0000   1.0000
     1.0000   1.0000   1.0000   1.0000   1.0000   1.0000   1.0000   1.0000
     1.0000   1.0000   1.0000   1.0000   1.0000   1.0000   1.0000   1.0000
     1.0000   1.0000   1.0000   1.0000   1.0000   1.0000   1.0000   1.0000
     1.0000   1.0000   1.0000   1.0000   1.0000   1.0000   1.0000   1.0000
     0.0000   0.0000   0.0000   0.0000   0.0000   0.0000   0.0000   0.0000
     0.0000   0.0000   0.0000   0.0000   0.0000   0.0000   0.0000   0.0000
     0.0000   0.0000   0.0000   0.0000   0.0000   0.0000   0.0000   0.0000
     0.0000   0.0000   0.0000   0.0000   0.0000   0.0000   0.0000   0.0000
     0.0000   0.0000   0.0000   0.0000   0.0000   0.0000   0.0000   0.0000

          k = 0.3036 0.5670 0.0000 ( 18032 PWs)   bands (ev):

   -79.5236 -79.5235 -51.0061 -50.9975 -41.3819 -41.3366 -41.2499 -41.2351
   -35.0514 -35.0509 -35.0389 -35.0375 -34.9814 -34.9812 -32.8198 -32.8174
   -32.8146 -32.8133 -32.7767 -32.7761 -32.7398 -32.7397 -18.1394 -17.9354
   -17.9221 -17.9085 -11.4366 -11.3855 -11.1005 -11.0468 -10.2882 -10.0001
    -9.6205  -9.5460  -8.9584  -8.9067  -8.1008  -8.0359  -5.9509  -5.5331
    -3.8878  -3.8433  -2.3804  -2.3796  -1.8571  -1.4740  -0.3842  -0.1149
     0.8424   0.9004   1.2912   1.6782   3.5725   3.6125   4.4369   4.5730
     5.3432   5.3491   5.5739   5.5797   5.7156   5.7423   6.0583   6.0630
     6.0701   6.0998   6.9271   7.0082   7.2865   7.3418   7.6903   7.6963
     7.8321   7.8670   7.9498   7.9908   8.7889   8.8293   9.4986   9.5058

     occupation numbers 
     1.0000   1.0000   1.0000   1.0000   1.0000   1.0000   1.0000   1.0000
     1.0000   1.0000   1.0000   1.0000   1.0000   1.0000   1.0000   1.0000
     1.0000   1.0000   1.0000   1.0000   1.0000   1.0000   1.0000   1.0000
     1.0000   1.0000   1.0000   1.0000   1.0000   1.0000   1.0000   1.0000
     1.0000   1.0000   1.0000   1.0000   1.0000   1.0000   1.0000   1.0000
     0.0000   0.0000   0.0000   0.0000   0.0000   0.0000   0.0000   0.0000
     0.0000   0.0000   0.0000   0.0000   0.0000   0.0000   0.0000   0.0000
     0.0000   0.0000   0.0000   0.0000   0.0000   0.0000   0.0000   0.0000
     0.0000   0.0000   0.0000   0.0000   0.0000   0.0000   0.0000   0.0000
     0.0000   0.0000   0.0000   0.0000   0.0000   0.0000   0.0000   0.0000

          k = 0.3214 0.5567 0.0000 ( 18032 PWs)   bands (ev):

   -79.5235 -79.5235 -51.0062 -50.9976 -41.3819 -41.3361 -41.2508 -41.2356
   -35.0514 -35.0509 -35.0389 -35.0374 -34.9814 -34.9812 -32.8198 -32.8174
   -32.8146 -32.8133 -32.7767 -32.7761 -32.7398 -32.7397 -18.1362 -17.9313
   -17.9203 -17.9068 -11.4431 -11.3916 -11.0719 -11.0249 -10.3204 -10.0089
    -9.6431  -9.5507  -8.9529  -8.9008  -8.1093  -8.0423  -5.9399  -5.5178
    -3.9036  -3.8648  -2.3862  -2.3831  -1.8491  -1.4628  -0.3726  -0.1012
     0.8992   0.9351   1.2200   1.6285   3.5767   3.6174   4.4727   4.6061
     5.3748   5.3875   5.6539   5.6576   5.7769   5.7975   5.9997   6.0049
     6.0249   6.0400   6.8699   6.9419   7.3347   7.3998   7.7098   7.7171
     7.8170   7.8437   7.8881   7.9438   8.7918   8.8377   9.4526   9.4566

     occupation numbers 
     1.0000   1.0000   1.0000   1.0000   1.0000   1.0000   1.0000   1.0000
     1.0000   1.0000   1.0000   1.0000   1.0000   1.0000   1.0000   1.0000
     1.0000   1.0000   1.0000   1.0000   1.0000   1.0000   1.0000   1.0000
     1.0000   1.0000   1.0000   1.0000   1.0000   1.0000   1.0000   1.0000
     1.0000   1.0000   1.0000   1.0000   1.0000   1.0000   1.0000   1.0000
     0.0000   0.0000   0.0000   0.0000   0.0000   0.0000   0.0000   0.0000
     0.0000   0.0000   0.0000   0.0000   0.0000   0.0000   0.0000   0.0000
     0.0000   0.0000   0.0000   0.0000   0.0000   0.0000   0.0000   0.0000
     0.0000   0.0000   0.0000   0.0000   0.0000   0.0000   0.0000   0.0000
     0.0000   0.0000   0.0000   0.0000   0.0000   0.0000   0.0000   0.0000

          k = 0.3214 0.5774 0.0000 ( 18052 PWs)   bands (ev):

   -79.5235 -79.5235 -51.0063 -50.9977 -41.3821 -41.3358 -41.2515 -41.2360
   -35.0514 -35.0509 -35.0389 -35.0374 -34.9814 -34.9812 -32.8198 -32.8174
   -32.8146 -32.8133 -32.7767 -32.7761 -32.7398 -32.7397 -18.1321 -17.9261
   -17.9183 -17.9048 -11.4504 -11.3988 -11.0463 -11.0050 -10.3535 -10.0271
    -9.6544  -9.5521  -8.9460  -8.8931  -8.1200  -8.0509  -5.9266  -5.4992
    -3.9211  -3.8884  -2.3911  -2.3838  -1.8376  -1.4467  -0.3634  -0.0900
     0.9323   0.9509   1.1681   1.5932   3.5876   3.6292   4.5193   4.6560
     5.4339   5.4511   5.6741   5.6866   5.7800   5.8074   5.9606   5.9721
     5.9877   5.9974   6.8278   6.8972   7.3944   7.4743   7.7338   7.7489
     7.7931   7.7935   7.8320   7.9200   8.7655   8.8157   9.4304   9.4316

     occupation numbers 
     1.0000   1.0000   1.0000   1.0000   1.0000   1.0000   1.0000   1.0000
     1.0000   1.0000   1.0000   1.0000   1.0000   1.0000   1.0000   1.0000
     1.0000   1.0000   1.0000   1.0000   1.0000   1.0000   1.0000   1.0000
     1.0000   1.0000   1.0000   1.0000   1.0000   1.0000   1.0000   1.0000
     1.0000   1.0000   1.0000   1.0000   1.0000   1.0000   1.0000   1.0000
     0.0000   0.0000   0.0000   0.0000   0.0000   0.0000   0.0000   0.0000
     0.0000   0.0000   0.0000   0.0000   0.0000   0.0000   0.0000   0.0000
     0.0000   0.0000   0.0000   0.0000   0.0000   0.0000   0.0000   0.0000
     0.0000   0.0000   0.0000   0.0000   0.0000   0.0000   0.0000   0.0000
     0.0000   0.0000   0.0000   0.0000   0.0000   0.0000   0.0000   0.0000

     the Fermi energy is    -5.2053 ev

!    total energy              =    -585.00995381 Ry
     estimated scf accuracy    <          6.2E-13 Ry
     smearing contrib. (-TS)   =       0.00000000 Ry
     internal energy E=F+TS    =    -585.00995381 Ry

     The total energy is F=E-TS. E is the sum of the following terms:
     one-electron contribution =   -4307.93624867 Ry
     hartree contribution      =    2147.28390122 Ry
     xc contribution           =     -51.60883119 Ry
     ewald contribution        =    1627.25122482 Ry

     convergence has been achieved in  10 iterations

     Forces acting on atoms (cartesian axes, Ry/au):

     atom    1 type  1   force =     0.00000000    0.00000000    0.00000000
     atom    2 type  2   force =     0.00000000   -0.00000000   -0.00003818
     atom    3 type  2   force =     0.00000000    0.00000000    0.00003818
     The non-local contrib.  to forces
     atom    1 type  1   force =     0.00000000    0.00000000    0.00000000
     atom    2 type  2   force =    -0.00000000   -0.00000000   -0.37314580
     atom    3 type  2   force =     0.00000000    0.00000000    0.37314580
     The ionic contribution  to forces
     atom    1 type  1   force =     0.00000003   -0.00000002    0.00000000
     atom    2 type  2   force =    -0.00000002    0.00000001   76.64560692
     atom    3 type  2   force =    -0.00000002    0.00000001  -76.64560692
     The local contribution  to forces
     atom    1 type  1   force =     0.00000071   -0.00000041    0.00000000
     atom    2 type  2   force =     0.00000001   -0.00000001  -76.27249847
     atom    3 type  2   force =     0.00000001   -0.00000001   76.27249847
     The core correction contribution to forces
     atom    1 type  1   force =     0.00000000    0.00000000    0.00000000
     atom    2 type  2   force =     0.00000000    0.00000000    0.00000000
     atom    3 type  2   force =     0.00000000    0.00000000    0.00000000
     The Hubbard contrib.    to forces
     atom    1 type  1   force =     0.00000000    0.00000000    0.00000000
     atom    2 type  2   force =     0.00000000    0.00000000    0.00000000
     atom    3 type  2   force =     0.00000000    0.00000000    0.00000000
     The SCF correction term to forces
     atom    1 type  1   force =     0.00000000   -0.00000000    0.00000000
     atom    2 type  2   force =    -0.00000000    0.00000000   -0.00000083
     atom    3 type  2   force =    -0.00000000    0.00000000    0.00000083

     Total force =     0.000054     Total SCF correction =     0.000001


     Computing stress (Cartesian axis) and pressure

          total   stress  (Ry/bohr**3)                   (kbar)     P=        0.21
   0.00000226   0.00000000   0.00000000            0.33        0.00        0.00
   0.00000000   0.00000226   0.00000000            0.00        0.33        0.00
   0.00000000  -0.00000000  -0.00000024            0.00       -0.00       -0.03

     kinetic stress (kbar)  20005.40      0.00     -0.00
                                0.00  20005.40     -0.00
                               -0.00     -0.00  20048.35

     local   stress (kbar)-564905.76     -0.00     -0.00
                               -0.00-564905.76      0.00
                               -0.00      0.00 570411.80

     nonloc. stress (kbar)  -4422.18      0.00      0.00
                                0.00  -4422.18     -0.00
                                0.00     -0.00  -4380.67

     hartree stress (kbar) 283912.24     -0.00     -0.00
                               -0.00 283912.24      0.00
                               -0.00      0.00-272409.94

     exc-cor stress (kbar)  -2239.15      0.00     -0.00
                                0.00  -2239.15     -0.00
                               -0.00     -0.00  -2240.59

     corecor stress (kbar)      0.00      0.00      0.00
                                0.00      0.00      0.00
                                0.00      0.00      0.00

     ewald   stress (kbar) 267649.78      0.00      0.00
                                0.00 267649.78     -0.00
                                0.00     -0.00-311428.99

     hubbard stress (kbar)      0.00      0.00      0.00
                                0.00      0.00      0.00
                                0.00      0.00      0.00

     DFT-D   stress (kbar)      0.00      0.00      0.00
                                0.00      0.00      0.00
                                0.00      0.00      0.00

     XDM     stress (kbar)      0.00      0.00      0.00
                                0.00      0.00      0.00
                                0.00      0.00      0.00

     dft-nl  stress (kbar)      0.00      0.00      0.00
                                0.00      0.00      0.00
                                0.00      0.00      0.00

     TS-vdW  stress (kbar)      0.00      0.00      0.00
                                0.00      0.00      0.00
                                0.00      0.00      0.00

     MDB     stress (kbar)      0.00      0.00      0.00
                                0.00      0.00      0.00
                                0.00      0.00      0.00

     3D-RISM stress (kbar)      0.00      0.00      0.00
                                0.00      0.00      0.00
                                0.00      0.00      0.00


     BFGS Geometry Optimization
     Energy error            =      0.0E+00 Ry
     Gradient error          =      3.8E-05 Ry/Bohr

     bfgs converged in   1 scf cycles and   0 bfgs steps
     (criteria: energy <  1.2E-04 Ry, force <  1.0E-04 Ry/Bohr)

     End of BFGS Geometry Optimization

     Final energy             =    -585.0099538109 Ry
Begin final coordinates

ATOMIC_POSITIONS (crystal)
W                0.3333333330        0.6666666670        0.0000000000
S                0.6666666670        0.3333333330        0.0874270945
S                0.6666666670        0.3333333330       -0.0874270945
End final coordinates



     Writing all to output data dir ./bpc_100-c_18-ecut_100-k_56.save/ :
     XML data file, charge density, pseudopotentials, collected wavefunctions
 
     init_run     :      1.01s CPU      4.05s WALL (       1 calls)
     electrons    :     82.61s CPU    173.48s WALL (       1 calls)
     forces       :      2.04s CPU      2.22s WALL (       1 calls)
     stress       :      5.35s CPU      5.65s WALL (       1 calls)

     Called by init_run:
     wfcinit      :      0.96s CPU      3.92s WALL (       1 calls)
     wfcinit:atom :      0.01s CPU      0.01s WALL (      49 calls)
     wfcinit:wfcr :      0.91s CPU      3.87s WALL (      49 calls)
     potinit      :      0.01s CPU      0.02s WALL (       1 calls)
     hinit0       :      0.01s CPU      0.04s WALL (       1 calls)

     Called by electrons:
     c_bands      :     74.68s CPU    145.14s WALL (      11 calls)
     sum_band     :      7.77s CPU     17.85s WALL (      11 calls)
     v_of_rho     :      0.03s CPU      0.09s WALL (      11 calls)
     v_h          :      0.00s CPU      0.01s WALL (      11 calls)
     v_xc         :      0.02s CPU      0.08s WALL (      11 calls)
     mix_rho      :      0.03s CPU      0.07s WALL (      11 calls)

     Called by c_bands:
     init_us_2    :      0.24s CPU      0.34s WALL (    1225 calls)
     cegterg      :     62.54s CPU    124.82s WALL (     539 calls)

     Called by sum_band:
     sum_band:wei :      0.03s CPU      0.07s WALL (      11 calls)
     sum_band:loo :      7.65s CPU     17.53s WALL (      11 calls)
     sum_band:buf :      0.14s CPU      0.20s WALL (     539 calls)
     sum_band:ini :      0.12s CPU      0.17s WALL (     539 calls)

     Called by *egterg:
     cdiaghg      :     15.64s CPU     16.11s WALL (    2769 calls)
     cegterg:over :      3.25s CPU      4.37s WALL (    2279 calls)
     cegterg:upda :      1.15s CPU      1.22s WALL (    2279 calls)
     cegterg:last :      1.68s CPU      1.74s WALL (    1180 calls)
     h_psi        :     39.67s CPU    102.42s WALL (    2867 calls)
     g_psi        :      0.12s CPU      0.13s WALL (    2279 calls)

     Called by h_psi:
     h_psi:calbec :      1.84s CPU      2.74s WALL (    2867 calls)
     vloc_psi     :     34.65s CPU     96.29s WALL (    2867 calls)
     vloc_psi:tg_ :      0.76s CPU      1.11s WALL (    2867 calls)
     add_vuspsi   :      3.02s CPU      3.19s WALL (    2867 calls)

     General routines
     calbec       :      2.34s CPU      3.50s WALL (    3112 calls)
     fft          :      0.04s CPU      0.14s WALL (     184 calls)
     ffts         :      0.01s CPU      0.04s WALL (      44 calls)
     fftw         :     37.76s CPU    105.31s WALL (   71312 calls)
 
     Parallel routines
     fft_scatt_xy :      2.45s CPU      5.44s WALL (   71540 calls)
     fft_scatt_yz :     24.62s CPU     75.96s WALL (   71540 calls)
     fft_scatt_tg :      3.78s CPU      8.51s WALL (   71312 calls)
 
     PWSCF        :   1m52.33s CPU   3m47.90s WALL

 
   This run was terminated on:   2:10: 7   6Feb2025            

=------------------------------------------------------------------------------=
   JOB DONE.
=------------------------------------------------------------------------------=
