PROCAR new format
# of k-points: 1158         # of bands:  16         # of ions:   2

 k-point    1 :    0.00000000 0.00000000 0.00000000     weight = 0.00462963

band   1 # energy  -11.98888217 # occ.  2.00000000
 
ion      s      p      d    tot
  1  0.000  0.000  0.983  0.983
  2  0.000  0.004  0.000  0.004
tot  0.000  0.004  0.984  0.987
 
band   2 # energy  -11.98888208 # occ.  2.00000000
 
ion      s      p      d    tot
  1  0.000  0.000  0.983  0.983
  2  0.000  0.004  0.000  0.004
tot  0.000  0.004  0.984  0.987
 
band   3 # energy  -11.98888207 # occ.  2.00000000
 
ion      s      p      d    tot
  1  0.000  0.000  0.983  0.983
  2  0.000  0.004  0.000  0.004
tot  0.000  0.004  0.984  0.987
 
band   4 # energy  -11.90901988 # occ.  2.00000000
 
ion      s      p      d    tot
  1  0.000  0.000  0.990  0.990
  2  0.000  0.000  0.000  0.000
tot  0.000  0.000  0.990  0.990
 
band   5 # energy  -11.90901988 # occ.  2.00000000
 
ion      s      p      d    tot
  1  0.000  0.000  0.990  0.990
  2  0.000  0.000  0.000  0.000
tot  0.000  0.000  0.990  0.990
 
band   6 # energy   -9.82352660 # occ.  2.00000000
 
ion      s      p      d    tot
  1  0.191  0.000  0.000  0.191
  2  0.423  0.000  0.000  0.423
tot  0.614  0.000  0.000  0.614
 
band   7 # energy    2.94103426 # occ.  2.00000000
 
ion      s      p      d    tot
  1  0.000  0.104  0.062  0.166
  2  0.000  0.461  0.005  0.467
tot  0.000  0.565  0.067  0.633
 
band   8 # energy    2.94103426 # occ.  2.00000000
 
ion      s      p      d    tot
  1  0.000  0.104  0.062  0.166
  2  0.000  0.461  0.005  0.467
tot  0.000  0.565  0.067  0.633
 
band   9 # energy    2.94103450 # occ.  2.00000000
 
ion      s      p      d    tot
  1  0.000  0.104  0.062  0.166
  2  0.000  0.461  0.005  0.467
tot  0.000  0.565  0.067  0.633
 
band  10 # energy    3.27074007 # occ.  0.00000000
 
ion      s      p      d    tot
  1  0.405  0.000  0.000  0.405
  2  0.361  0.000  0.000  0.361
tot  0.766  0.000  0.000  0.766
 
band  11 # energy    6.60820824 # occ.  0.00000000
 
ion      s      p      d    tot
  1  0.000  0.389  0.009  0.399
  2  0.000  0.040  0.067  0.107
tot  0.000  0.429  0.077  0.506
 
band  12 # energy    6.60820824 # occ.  0.00000000
 
ion      s      p      d    tot
  1  0.000  0.389  0.009  0.399
  2  0.000  0.040  0.067  0.107
tot  0.000  0.429  0.077  0.506
 
band  13 # energy    6.60820831 # occ.  0.00000000
 
ion      s      p      d    tot
  1  0.000  0.389  0.009  0.399
  2  0.000  0.040  0.067  0.107
tot  0.000  0.429  0.077  0.506
 
band  14 # energy   10.27799668 # occ.  0.00000000
 
ion      s      p      d    tot
  1  0.227  0.000  0.000  0.227
  2  0.022  0.000  0.000  0.022
tot  0.249  0.000  0.000  0.249
 
band  15 # energy   13.09676052 # occ.  0.00000000
 
ion      s      p      d    tot
  1  0.000  0.000  0.187  0.187
  2  0.000  0.000  0.192  0.192
tot  0.000  0.000  0.379  0.379
 
band  16 # energy   13.09676168 # occ.  0.00000000
 
ion      s      p      d    tot
  1  0.000  0.000  0.187  0.187
  2  0.000  0.000  0.192  0.192
tot  0.000  0.000  0.379  0.379
 

 k-point    2 :    0.16666667 0.00000000 0.00000000     weight = 0.03703704

band   1 # energy  -12.01030487 # occ.  2.00000000
 
ion      s      p      d    tot
  1  0.001  0.000  0.972  0.974
  2  0.007  0.003  0.000  0.010
tot  0.008  0.003  0.973  0.984
 
band   2 # energy  -11.98301804 # occ.  2.00000000
 
ion      s      p      d    tot
  1  0.000  0.000  0.984  0.984
  2  0.000  0.003  0.000  0.004
tot  0.000  0.004  0.984  0.988
 
band   3 # energy  -11.98301798 # occ.  2.00000000
 
ion      s      p      d    tot
  1  0.000  0.000  0.984  0.984
  2  0.000  0.003  0.000  0.004
tot  0.000  0.004  0.984  0.988
 
band   4 # energy  -11.90922003 # occ.  2.00000000
 
ion      s      p      d    tot
  1  0.000  0.000  0.990  0.990
  2  0.000  0.000  0.000  0.000
tot  0.000  0.000  0.990  0.990
 
band   5 # energy  -11.90922000 # occ.  2.00000000
 
ion      s      p      d    tot
  1  0.000  0.000  0.990  0.990
  2  0.000  0.000  0.000  0.000
tot  0.000  0.000  0.990  0.990
 
band   6 # energy   -9.50389202 # occ.  2.00000000
 
ion      s      p      d    tot
  1  0.178  0.006  0.011  0.195
  2  0.426  0.003  0.000  0.429
tot  0.604  0.009  0.012  0.624
 
band   7 # energy    0.16895761 # occ.  2.00000000
 
ion      s      p      d    tot
  1  0.186  0.080  0.029  0.295
  2  0.136  0.208  0.005  0.349
tot  0.322  0.289  0.034  0.644
 
band   8 # energy    2.55674033 # occ.  2.00000000
 
ion      s      p      d    tot
  1  0.000  0.138  0.049  0.187
  2  0.000  0.423  0.006  0.429
tot  0.000  0.562  0.055  0.617
 
band   9 # energy    2.55674053 # occ.  2.00000000
 
ion      s      p      d    tot
  1  0.000  0.138  0.049  0.187
  2  0.000  0.423  0.006  0.429
tot  0.000  0.562  0.055  0.617
 
band  10 # energy    4.44413300 # occ.  0.00000000
 
ion      s      p      d    tot
  1  0.240  0.099  0.007  0.346
  2  0.166  0.104  0.015  0.285
tot  0.407  0.203  0.022  0.632
 
band  11 # energy    7.15645621 # occ.  0.00000000
 
ion      s      p      d    tot
  1  0.000  0.354  0.021  0.375
  2  0.000  0.077  0.065  0.143
tot  0.000  0.431  0.086  0.517
 
band  12 # energy    7.15645629 # occ.  0.00000000
 
ion      s      p      d    tot
  1  0.000  0.354  0.021  0.375
  2  0.000  0.077  0.065  0.143
tot  0.000  0.431  0.086  0.517
 
band  13 # energy    7.51225895 # occ.  0.00000000
 
ion      s      p      d    tot
  1  0.060  0.184  0.028  0.273
  2  0.050  0.179  0.038  0.268
tot  0.110  0.364  0.067  0.541
 
band  14 # energy   11.66567110 # occ.  0.00000000
 
ion      s      p      d    tot
  1  0.126  0.109  0.003  0.239
  2  0.010  0.023  0.010  0.044
tot  0.137  0.132  0.014  0.283
 
band  15 # energy   11.95952416 # occ.  0.00000000
 
ion      s      p      d    tot
  1  0.000  0.007  0.139  0.147
  2  0.000  0.002  0.130  0.132
tot  0.000  0.009  0.269  0.279
 
band  16 # energy   11.95952417 # occ.  0.00000000
 
ion      s      p      d    tot
  1  0.000  0.007  0.139  0.147
  2  0.000  0.002  0.130  0.132
tot  0.000  0.009  0.269  0.279
 

 k-point    3 :    0.33333333 0.00000000 0.00000000     weight = 0.03703704

band   1 # energy  -12.04821188 # occ.  2.00000000
 
ion      s      p      d    tot
  1  0.001  0.001  0.958  0.960
  2  0.018  0.001  0.000  0.019
tot  0.020  0.001  0.958  0.979
 
band   2 # energy  -11.97324123 # occ.  2.00000000
 
ion      s      p      d    tot
  1  0.000  0.000  0.985  0.985
  2  0.000  0.003  0.000  0.003
tot  0.000  0.003  0.985  0.988
 
band   3 # energy  -11.97324122 # occ.  2.00000000
 
ion      s      p      d    tot
  1  0.000  0.000  0.985  0.985
  2  0.000  0.003  0.000  0.003
tot  0.000  0.003  0.985  0.988
 
band   4 # energy  -11.90756561 # occ.  2.00000000
 
ion      s      p      d    tot
  1  0.000  0.000  0.990  0.990
  2  0.000  0.000  0.000  0.000
tot  0.000  0.000  0.990  0.990
 
band   5 # energy  -11.90756551 # occ.  2.00000000
 
ion      s      p      d    tot
  1  0.000  0.000  0.990  0.990
  2  0.000  0.000  0.000  0.000
tot  0.000  0.000  0.990  0.990
 
band   6 # energy   -8.67675062 # occ.  2.00000000
 
ion      s      p      d    tot
  1  0.139  0.021  0.031  0.191
  2  0.455  0.006  0.000  0.462
tot  0.595  0.027  0.031  0.653
 
band   7 # energy   -2.49386401 # occ.  2.00000000
 
ion      s      p      d    tot
  1  0.232  0.077  0.013  0.323
  2  0.091  0.170  0.003  0.265
tot  0.324  0.247  0.016  0.587
 
band   8 # energy    2.00825854 # occ.  2.00000000
 
ion      s      p      d    tot
  1  0.000  0.173  0.033  0.206
  2  0.000  0.392  0.005  0.397
tot  0.000  0.565  0.038  0.603
 
band   9 # energy    2.00825872 # occ.  2.00000000
 
ion      s      p      d    tot
  1  0.000  0.173  0.033  0.206
  2  0.000  0.392  0.005  0.397
tot  0.000  0.565  0.038  0.603
 
band  10 # energy    4.01926708 # occ.  0.00000000
 
ion      s      p      d    tot
  1  0.263  0.076  0.014  0.353
  2  0.148  0.052  0.023  0.223
tot  0.411  0.128  0.037  0.576
 
band  11 # energy    7.57578911 # occ.  0.00000000
 
ion      s      p      d    tot
  1  0.000  0.271  0.044  0.315
  2  0.000  0.080  0.068  0.149
tot  0.000  0.351  0.112  0.464
 
band  12 # energy    7.57578917 # occ.  0.00000000
 
ion      s      p      d    tot
  1  0.000  0.271  0.044  0.315
  2  0.000  0.080  0.068  0.149
tot  0.000  0.351  0.112  0.464
 
band  13 # energy   10.03296933 # occ.  0.00000000
 
ion      s      p      d    tot
  1  0.032  0.107  0.029  0.168
  2  0.035  0.273  0.014  0.323
tot  0.067  0.380  0.043  0.490
 
band  14 # energy   11.49802748 # occ.  0.00000000
 
ion      s      p      d    tot
  1  0.092  0.041  0.015  0.148
  2  0.028  0.011  0.018  0.056
tot  0.120  0.052  0.033  0.204
 
band  15 # energy   12.56888303 # occ.  0.00000000
 
ion      s      p      d    tot
  1  0.000  0.057  0.120  0.177
  2  0.000  0.031  0.125  0.155
tot  0.000  0.088  0.244  0.332
 
band  16 # energy   12.56888307 # occ.  0.00000000
 
ion      s      p      d    tot
  1  0.000  0.057  0.120  0.177
  2  0.000  0.031  0.125  0.155
tot  0.000  0.088  0.244  0.332
 

 k-point    4 :    0.50000000 0.00000000 0.00000000     weight = 0.01851852

band   1 # energy  -12.06539954 # occ.  2.00000000
 
ion      s      p      d    tot
  1  0.001  0.001  0.952  0.955
  2  0.023  0.000  0.000  0.023
tot  0.024  0.001  0.953  0.977
 
band   2 # energy  -11.96960725 # occ.  2.00000000
 
ion      s      p      d    tot
  1  0.000  0.000  0.985  0.985
  2  0.000  0.003  0.000  0.003
tot  0.000  0.003  0.986  0.988
 
band   3 # energy  -11.96960719 # occ.  2.00000000
 
ion      s      p      d    tot
  1  0.000  0.000  0.985  0.985
  2  0.000  0.003  0.000  0.003
tot  0.000  0.003  0.986  0.988
 
band   4 # energy  -11.90545000 # occ.  2.00000000
 
ion      s      p      d    tot
  1  0.000  0.000  0.990  0.990
  2  0.000  0.000  0.000  0.000
tot  0.000  0.000  0.990  0.990
 
band   5 # energy  -11.90544986 # occ.  2.00000000
 
ion      s      p      d    tot
  1  0.000  0.000  0.990  0.990
  2  0.000  0.000  0.000  0.000
tot  0.000  0.000  0.990  0.990
 
band   6 # energy   -8.05817889 # occ.  2.00000000
 
ion      s      p      d    tot
  1  0.097  0.032  0.044  0.173
  2  0.509  0.002  0.001  0.511
tot  0.605  0.034  0.045  0.685
 
band   7 # energy   -3.75533174 # occ.  2.00000000
 
ion      s      p      d    tot
  1  0.279  0.068  0.000  0.347
  2  0.033  0.164  0.002  0.198
tot  0.311  0.232  0.002  0.545
 
band   8 # energy    1.79282739 # occ.  2.00000000
 
ion      s      p      d    tot
  1  0.000  0.184  0.028  0.211
  2  0.000  0.384  0.004  0.389
tot  0.000  0.568  0.032  0.600
 
band   9 # energy    1.79282758 # occ.  2.00000000
 
ion      s      p      d    tot
  1  0.000  0.184  0.028  0.211
  2  0.000  0.384  0.004  0.389
tot  0.000  0.568  0.032  0.600
 
band  10 # energy    3.80057715 # occ.  0.00000000
 
ion      s      p      d    tot
  1  0.276  0.058  0.018  0.352
  2  0.150  0.044  0.025  0.219
tot  0.426  0.102  0.043  0.571
 
band  11 # energy    7.51648486 # occ.  0.00000000
 
ion      s      p      d    tot
  1  0.000  0.229  0.055  0.284
  2  0.000  0.069  0.071  0.140
tot  0.000  0.297  0.126  0.424
 
band  12 # energy    7.51648491 # occ.  0.00000000
 
ion      s      p      d    tot
  1  0.000  0.229  0.055  0.284
  2  0.000  0.069  0.071  0.140
tot  0.000  0.297  0.126  0.424
 
band  13 # energy   10.49800129 # occ.  0.00000000
 
ion      s      p      d    tot
  1  0.006  0.047  0.032  0.085
  2  0.001  0.105  0.005  0.111
tot  0.007  0.152  0.037  0.196
 
band  14 # energy   13.14292809 # occ.  0.00000000
 
ion      s      p      d    tot
  1  0.102  0.002  0.008  0.112
  2  0.005  0.333  0.012  0.350
tot  0.106  0.334  0.020  0.461
 
band  15 # energy   14.74963485 # occ.  0.00000000
 
ion      s      p      d    tot
  1  0.000  0.149  0.043  0.192
  2  0.000  0.077  0.111  0.188
tot  0.000  0.226  0.155  0.381
 
band  16 # energy   14.74971130 # occ.  0.00000000
 
ion      s      p      d    tot
  1  0.000  0.149  0.043  0.192
  2  0.000  0.077  0.111  0.188
tot  0.000  0.226  0.155  0.381
 

 k-point    5 :    0.16666667 0.16666667 0.00000000     weight = 0.02777778

band   1 # energy  -12.02205687 # occ.  2.00000000
 
ion      s      p      d    tot
  1  0.001  0.000  0.970  0.971
  2  0.009  0.003  0.000  0.012
tot  0.010  0.003  0.970  0.983
 
band   2 # energy  -11.97719364 # occ.  2.00000000
 
ion      s      p      d    tot
  1  0.000  0.000  0.985  0.985
  2  0.000  0.003  0.000  0.004
tot  0.000  0.003  0.985  0.988
 
band   3 # energy  -11.97719357 # occ.  2.00000000
 
ion      s      p      d    tot
  1  0.000  0.000  0.985  0.985
  2  0.000  0.003  0.000  0.004
tot  0.000  0.003  0.985  0.988
 
band   4 # energy  -11.91427776 # occ.  2.00000000
 
ion      s      p      d    tot
  1  0.000  0.000  0.989  0.989
  2  0.000  0.000  0.000  0.000
tot  0.000  0.000  0.989  0.989
 
band   5 # energy  -11.90586267 # occ.  2.00000000
 
ion      s      p      d    tot
  1  0.000  0.000  0.990  0.990
  2  0.000  0.000  0.000  0.000
tot  0.000  0.000  0.990  0.990
 
band   6 # energy   -9.39718327 # occ.  2.00000000
 
ion      s      p      d    tot
  1  0.174  0.008  0.014  0.196
  2  0.427  0.004  0.000  0.431
tot  0.601  0.012  0.014  0.627
 
band   7 # energy    0.16322711 # occ.  2.00000000
 
ion      s      p      d    tot
  1  0.241  0.050  0.032  0.324
  2  0.173  0.189  0.005  0.367
tot  0.414  0.239  0.037  0.691
 
band   8 # energy    1.91910830 # occ.  2.00000000
 
ion      s      p      d    tot
  1  0.000  0.166  0.036  0.202
  2  0.000  0.372  0.007  0.379
tot  0.000  0.538  0.043  0.581
 
band   9 # energy    1.91910843 # occ.  2.00000000
 
ion      s      p      d    tot
  1  0.000  0.166  0.036  0.202
  2  0.000  0.372  0.007  0.379
tot  0.000  0.538  0.043  0.581
 
band  10 # energy    5.36560441 # occ.  0.00000000
 
ion      s      p      d    tot
  1  0.188  0.086  0.030  0.303
  2  0.005  0.166  0.035  0.207
tot  0.193  0.252  0.066  0.510
 
band  11 # energy    5.92755913 # occ.  0.00000000
 
ion      s      p      d    tot
  1  0.062  0.233  0.004  0.298
  2  0.156  0.121  0.018  0.295
tot  0.217  0.354  0.022  0.593
 
band  12 # energy    8.15534523 # occ.  0.00000000
 
ion      s      p      d    tot
  1  0.000  0.325  0.032  0.357
  2  0.000  0.136  0.067  0.202
tot  0.000  0.460  0.099  0.559
 
band  13 # energy    8.15534531 # occ.  0.00000000
 
ion      s      p      d    tot
  1  0.000  0.325  0.032  0.357
  2  0.000  0.136  0.067  0.202
tot  0.000  0.460  0.099  0.559
 
band  14 # energy   10.33103855 # occ.  0.00000000
 
ion      s      p      d    tot
  1  0.005  0.001  0.109  0.115
  2  0.022  0.016  0.084  0.122
tot  0.028  0.017  0.192  0.237
 
band  15 # energy   12.38499885 # occ.  0.00000000
 
ion      s      p      d    tot
  1  0.147  0.141  0.004  0.292
  2  0.006  0.022  0.017  0.045
tot  0.153  0.163  0.022  0.337
 
band  16 # energy   13.54439818 # occ.  0.00000000
 
ion      s      p      d    tot
  1  0.000  0.000  0.177  0.177
  2  0.000  0.000  0.196  0.196
tot  0.000  0.000  0.374  0.374
 

 k-point    6 :    0.33333333 0.16666667 0.00000000     weight = 0.11111111

band   1 # energy  -12.05147835 # occ.  2.00000000
 
ion      s      p      d    tot
  1  0.001  0.001  0.959  0.961
  2  0.018  0.001  0.000  0.019
tot  0.018  0.002  0.959  0.980
 
band   2 # energy  -11.96868087 # occ.  2.00000000
 
ion      s      p      d    tot
  1  0.000  0.000  0.985  0.986
  2  0.000  0.003  0.000  0.003
tot  0.000  0.003  0.986  0.989
 
band   3 # energy  -11.96625218 # occ.  2.00000000
 
ion      s      p      d    tot
  1  0.000  0.000  0.986  0.986
  2  0.000  0.003  0.000  0.003
tot  0.000  0.003  0.986  0.989
 
band   4 # energy  -11.91713944 # occ.  2.00000000
 
ion      s      p      d    tot
  1  0.000  0.000  0.988  0.988
  2  0.000  0.000  0.000  0.001
tot  0.000  0.000  0.989  0.989
 
band   5 # energy  -11.90346338 # occ.  2.00000000
 
ion      s      p      d    tot
  1  0.000  0.000  0.990  0.990
  2  0.000  0.000  0.000  0.000
tot  0.000  0.000  0.990  0.990
 
band   6 # energy   -8.72671165 # occ.  2.00000000
 
ion      s      p      d    tot
  1  0.142  0.021  0.028  0.191
  2  0.450  0.007  0.000  0.457
tot  0.591  0.028  0.028  0.648
 
band   7 # energy   -1.85662095 # occ.  2.00000000
 
ion      s      p      d    tot
  1  0.265  0.060  0.020  0.345
  2  0.125  0.168  0.004  0.297
tot  0.390  0.227  0.025  0.642
 
band   8 # energy    1.05253866 # occ.  2.00000000
 
ion      s      p      d    tot
  1  0.042  0.162  0.024  0.227
  2  0.018  0.301  0.007  0.325
tot  0.059  0.462  0.031  0.553
 
band   9 # energy    1.36055901 # occ.  2.00000000
 
ion      s      p      d    tot
  1  0.000  0.187  0.024  0.211
  2  0.000  0.350  0.005  0.355
tot  0.000  0.537  0.029  0.566
 
band  10 # energy    5.33833549 # occ.  0.00000000
 
ion      s      p      d    tot
  1  0.144  0.100  0.033  0.277
  2  0.044  0.148  0.033  0.225
tot  0.189  0.247  0.066  0.502
 
band  11 # energy    6.61620326 # occ.  0.00000000
 
ion      s      p      d    tot
  1  0.087  0.202  0.016  0.305
  2  0.077  0.136  0.029  0.242
tot  0.163  0.338  0.045  0.546
 
band  12 # energy    8.49423543 # occ.  0.00000000
 
ion      s      p      d    tot
  1  0.001  0.146  0.063  0.211
  2  0.010  0.089  0.066  0.165
tot  0.012  0.235  0.129  0.376
 
band  13 # energy    8.94958251 # occ.  0.00000000
 
ion      s      p      d    tot
  1  0.000  0.273  0.048  0.320
  2  0.000  0.142  0.070  0.212
tot  0.000  0.414  0.118  0.532
 
band  14 # energy   11.64105529 # occ.  0.00000000
 
ion      s      p      d    tot
  1  0.026  0.096  0.070  0.193
  2  0.035  0.179  0.055  0.269
tot  0.062  0.275  0.125  0.461
 
band  15 # energy   13.54593900 # occ.  0.00000000
 
ion      s      p      d    tot
  1  0.058  0.122  0.031  0.212
  2  0.002  0.022  0.045  0.070
tot  0.060  0.145  0.076  0.281
 
band  16 # energy   13.85165709 # occ.  0.00000000
 
ion      s      p      d    tot
  1  0.000  0.040  0.132  0.172
  2  0.000  0.021  0.158  0.179
tot  0.000  0.061  0.290  0.351
 

 k-point    7 :    0.50000000 0.16666667 0.00000000     weight = 0.11111111

band   1 # energy  -12.06964767 # occ.  2.00000000
 
ion      s      p      d    tot
  1  0.001  0.001  0.953  0.954
  2  0.023  0.000  0.000  0.023
tot  0.024  0.001  0.953  0.978
 
band   2 # energy  -11.96571042 # occ.  2.00000000
 
ion      s      p      d    tot
  1  0.000  0.000  0.986  0.986
  2  0.000  0.002  0.000  0.003
tot  0.000  0.002  0.986  0.989
 
band   3 # energy  -11.96162137 # occ.  2.00000000
 
ion      s      p      d    tot
  1  0.000  0.000  0.986  0.986
  2  0.000  0.002  0.000  0.003
tot  0.000  0.003  0.987  0.989
 
band   4 # energy  -11.91296481 # occ.  2.00000000
 
ion      s      p      d    tot
  1  0.000  0.000  0.989  0.989
  2  0.000  0.000  0.000  0.000
tot  0.000  0.000  0.989  0.989
 
band   5 # energy  -11.90401837 # occ.  2.00000000
 
ion      s      p      d    tot
  1  0.000  0.000  0.990  0.990
  2  0.000  0.000  0.000  0.000
tot  0.000  0.000  0.990  0.990
 
band   6 # energy   -7.92716652 # occ.  2.00000000
 
ion      s      p      d    tot
  1  0.085  0.037  0.044  0.166
  2  0.514  0.004  0.001  0.519
tot  0.599  0.041  0.044  0.684
 
band   7 # energy   -3.50613323 # occ.  2.00000000
 
ion      s      p      d    tot
  1  0.317  0.055  0.004  0.375
  2  0.045  0.158  0.003  0.207
tot  0.362  0.213  0.007  0.582
 
band   8 # energy    0.26826790 # occ.  2.00000000
 
ion      s      p      d    tot
  1  0.060  0.154  0.019  0.233
  2  0.027  0.267  0.006  0.299
tot  0.087  0.421  0.024  0.532
 
band   9 # energy    1.29133575 # occ.  2.00000000
 
ion      s      p      d    tot
  1  0.000  0.193  0.021  0.214
  2  0.000  0.354  0.004  0.358
tot  0.000  0.547  0.025  0.572
 
band  10 # energy    5.15766824 # occ.  0.00000000
 
ion      s      p      d    tot
  1  0.162  0.097  0.031  0.290
  2  0.076  0.126  0.030  0.232
tot  0.238  0.223  0.061  0.522
 
band  11 # energy    7.31196063 # occ.  0.00000000
 
ion      s      p      d    tot
  1  0.046  0.154  0.041  0.241
  2  0.026  0.129  0.048  0.203
tot  0.072  0.283  0.088  0.444
 
band  12 # energy    8.65564009 # occ.  0.00000000
 
ion      s      p      d    tot
  1  0.000  0.224  0.059  0.282
  2  0.000  0.108  0.073  0.181
tot  0.000  0.332  0.131  0.464
 
band  13 # energy    9.86988622 # occ.  0.00000000
 
ion      s      p      d    tot
  1  0.018  0.152  0.053  0.224
  2  0.018  0.151  0.050  0.218
tot  0.036  0.303  0.103  0.441
 
band  14 # energy   12.64230867 # occ.  0.00000000
 
ion      s      p      d    tot
  1  0.009  0.094  0.060  0.163
  2  0.002  0.127  0.037  0.166
tot  0.011  0.221  0.097  0.329
 
band  15 # energy   14.34519660 # occ.  0.00000000
 
ion      s      p      d    tot
  1  0.067  0.050  0.042  0.159
  2  0.018  0.140  0.024  0.182
tot  0.085  0.190  0.066  0.341
 
band  16 # energy   14.77903216 # occ.  0.00000000
 
ion      s      p      d    tot
  1  0.000  0.127  0.073  0.200
  2  0.000  0.064  0.131  0.194
tot  0.000  0.191  0.203  0.394
 

 k-point    8 :   -0.33333333 0.16666667 0.00000000     weight = 0.11111111

band   1 # energy  -12.06307118 # occ.  2.00000000
 
ion      s      p      d    tot
  1  0.001  0.001  0.954  0.956
  2  0.022  0.000  0.000  0.022
tot  0.023  0.001  0.954  0.978
 
band   2 # energy  -11.96703148 # occ.  2.00000000
 
ion      s      p      d    tot
  1  0.000  0.000  0.986  0.986
  2  0.000  0.002  0.000  0.003
tot  0.000  0.002  0.986  0.988
 
band   3 # energy  -11.96548347 # occ.  2.00000000
 
ion      s      p      d    tot
  1  0.000  0.000  0.986  0.986
  2  0.000  0.003  0.000  0.003
tot  0.000  0.003  0.986  0.989
 
band   4 # energy  -11.90947719 # occ.  2.00000000
 
ion      s      p      d    tot
  1  0.000  0.000  0.990  0.990
  2  0.000  0.000  0.000  0.000
tot  0.000  0.000  0.990  0.990
 
band   5 # energy  -11.90801933 # occ.  2.00000000
 
ion      s      p      d    tot
  1  0.000  0.000  0.990  0.990
  2  0.000  0.000  0.000  0.000
tot  0.000  0.000  0.990  0.990
 
band   6 # energy   -8.15392394 # occ.  2.00000000
 
ion      s      p      d    tot
  1  0.105  0.032  0.039  0.176
  2  0.490  0.006  0.001  0.497
tot  0.595  0.038  0.040  0.673
 
band   7 # energy   -3.08865112 # occ.  2.00000000
 
ion      s      p      d    tot
  1  0.298  0.059  0.008  0.365
  2  0.072  0.159  0.004  0.235
tot  0.370  0.217  0.012  0.600
 
band   8 # energy    0.07076979 # occ.  2.00000000
 
ion      s      p      d    tot
  1  0.050  0.160  0.017  0.226
  2  0.019  0.264  0.005  0.289
tot  0.069  0.424  0.022  0.515
 
band   9 # energy    1.73215187 # occ.  2.00000000
 
ion      s      p      d    tot
  1  0.000  0.184  0.028  0.212
  2  0.000  0.377  0.005  0.381
tot  0.000  0.561  0.032  0.593
 
band  10 # energy    5.29889955 # occ.  0.00000000
 
ion      s      p      d    tot
  1  0.186  0.105  0.024  0.315
  2  0.091  0.130  0.027  0.247
tot  0.276  0.235  0.051  0.562
 
band  11 # energy    7.57302916 # occ.  0.00000000
 
ion      s      p      d    tot
  1  0.024  0.148  0.048  0.221
  2  0.017  0.116  0.053  0.186
tot  0.041  0.264  0.101  0.406
 
band  12 # energy    8.19562354 # occ.  0.00000000
 
ion      s      p      d    tot
  1  0.000  0.260  0.046  0.306
  2  0.000  0.098  0.067  0.165
tot  0.000  0.358  0.113  0.471
 
band  13 # energy    9.94739476 # occ.  0.00000000
 
ion      s      p      d    tot
  1  0.040  0.127  0.037  0.204
  2  0.030  0.235  0.033  0.298
tot  0.069  0.362  0.071  0.501
 
band  14 # energy   11.95349000 # occ.  0.00000000
 
ion      s      p      d    tot
  1  0.000  0.056  0.123  0.179
  2  0.000  0.026  0.123  0.149
tot  0.000  0.082  0.246  0.328
 
band  15 # energy   12.79195442 # occ.  0.00000000
 
ion      s      p      d    tot
  1  0.020  0.181  0.041  0.242
  2  0.006  0.074  0.032  0.112
tot  0.026  0.255  0.074  0.354
 
band  16 # energy   14.57732557 # occ.  0.00000000
 
ion      s      p      d    tot
  1  0.041  0.077  0.068  0.186
  2  0.029  0.047  0.055  0.131
tot  0.070  0.124  0.123  0.317
 

 k-point    9 :   -0.16666667 0.16666667 0.00000000     weight = 0.05555556

band   1 # energy  -12.03610040 # occ.  2.00000000
 
ion      s      p      d    tot
  1  0.001  0.001  0.963  0.964
  2  0.015  0.002  0.000  0.017
tot  0.016  0.002  0.963  0.981
 
band   2 # energy  -11.97622401 # occ.  2.00000000
 
ion      s      p      d    tot
  1  0.000  0.000  0.985  0.985
  2  0.000  0.003  0.000  0.004
tot  0.000  0.003  0.985  0.988
 
band   3 # energy  -11.97304428 # occ.  2.00000000
 
ion      s      p      d    tot
  1  0.000  0.000  0.985  0.985
  2  0.000  0.003  0.000  0.003
tot  0.000  0.003  0.985  0.988
 
band   4 # energy  -11.91200263 # occ.  2.00000000
 
ion      s      p      d    tot
  1  0.000  0.000  0.989  0.989
  2  0.000  0.000  0.000  0.000
tot  0.000  0.000  0.990  0.990
 
band   5 # energy  -11.90711716 # occ.  2.00000000
 
ion      s      p      d    tot
  1  0.000  0.000  0.990  0.990
  2  0.000  0.000  0.000  0.000
tot  0.000  0.000  0.990  0.990
 
band   6 # energy   -9.00743515 # occ.  2.00000000
 
ion      s      p      d    tot
  1  0.156  0.015  0.023  0.195
  2  0.438  0.006  0.000  0.444
tot  0.595  0.021  0.024  0.639
 
band   7 # energy   -1.23677534 # occ.  2.00000000
 
ion      s      p      d    tot
  1  0.242  0.065  0.023  0.331
  2  0.139  0.176  0.005  0.320
tot  0.382  0.241  0.028  0.651
 
band   8 # energy    0.82093656 # occ.  2.00000000
 
ion      s      p      d    tot
  1  0.024  0.171  0.022  0.217
  2  0.003  0.295  0.007  0.305
tot  0.027  0.466  0.029  0.522
 
band   9 # energy    2.41017696 # occ.  2.00000000
 
ion      s      p      d    tot
  1  0.000  0.155  0.042  0.197
  2  0.000  0.419  0.006  0.424
tot  0.000  0.574  0.048  0.621
 
band  10 # energy    5.41522201 # occ.  0.00000000
 
ion      s      p      d    tot
  1  0.213  0.112  0.012  0.337
  2  0.117  0.161  0.017  0.295
tot  0.330  0.272  0.029  0.632
 
band  11 # energy    7.32566478 # occ.  0.00000000
 
ion      s      p      d    tot
  1  0.039  0.198  0.040  0.277
  2  0.038  0.124  0.050  0.212
tot  0.077  0.322  0.090  0.489
 
band  12 # energy    7.45647003 # occ.  0.00000000
 
ion      s      p      d    tot
  1  0.000  0.341  0.024  0.365
  2  0.000  0.078  0.063  0.141
tot  0.000  0.420  0.086  0.506
 
band  13 # energy    8.49081963 # occ.  0.00000000
 
ion      s      p      d    tot
  1  0.017  0.158  0.038  0.213
  2  0.016  0.173  0.047  0.235
tot  0.033  0.330  0.085  0.448
 
band  14 # energy   10.92713575 # occ.  0.00000000
 
ion      s      p      d    tot
  1  0.000  0.002  0.135  0.137
  2  0.000  0.002  0.120  0.122
tot  0.000  0.004  0.255  0.259
 
band  15 # energy   12.68845366 # occ.  0.00000000
 
ion      s      p      d    tot
  1  0.000  0.123  0.077  0.199
  2  0.022  0.085  0.041  0.148
tot  0.022  0.208  0.117  0.347
 
band  16 # energy   13.40438040 # occ.  0.00000000
 
ion      s      p      d    tot
  1  0.103  0.160  0.010  0.272
  2  0.001  0.043  0.050  0.094
tot  0.103  0.203  0.060  0.366
 

 k-point   10 :    0.33333333 0.33333333 0.00000000     weight = 0.02777778

band   1 # energy  -12.07468580 # occ.  2.00000000
 
ion      s      p      d    tot
  1  0.001  0.001  0.955  0.957
  2  0.021  0.001  0.000  0.022
tot  0.021  0.002  0.956  0.978
 
band   2 # energy  -11.95299185 # occ.  2.00000000
 
ion      s      p      d    tot
  1  0.000  0.000  0.987  0.988
  2  0.000  0.002  0.000  0.003
tot  0.000  0.002  0.988  0.990
 
band   3 # energy  -11.95299178 # occ.  2.00000000
 
ion      s      p      d    tot
  1  0.000  0.000  0.987  0.988
  2  0.000  0.002  0.000  0.003
tot  0.000  0.002  0.988  0.990
 
band   4 # energy  -11.92727893 # occ.  2.00000000
 
ion      s      p      d    tot
  1  0.000  0.000  0.986  0.987
  2  0.000  0.001  0.000  0.001
tot  0.000  0.001  0.987  0.988
 
band   5 # energy  -11.89954206 # occ.  2.00000000
 
ion      s      p      d    tot
  1  0.000  0.000  0.991  0.991
  2  0.000  0.000  0.000  0.000
tot  0.000  0.000  0.991  0.991
 
band   6 # energy   -8.26538600 # occ.  2.00000000
 
ion      s      p      d    tot
  1  0.111  0.033  0.033  0.176
  2  0.475  0.009  0.000  0.484
tot  0.586  0.041  0.033  0.660
 
band   7 # energy   -2.47531623 # occ.  2.00000000
 
ion      s      p      d    tot
  1  0.341  0.029  0.020  0.391
  2  0.120  0.152  0.005  0.277
tot  0.460  0.182  0.026  0.668
 
band   8 # energy    0.70129935 # occ.  2.00000000
 
ion      s      p      d    tot
  1  0.000  0.200  0.014  0.214
  2  0.000  0.327  0.003  0.330
tot  0.000  0.526  0.017  0.544
 
band   9 # energy    0.70129947 # occ.  2.00000000
 
ion      s      p      d    tot
  1  0.000  0.200  0.014  0.214
  2  0.000  0.327  0.003  0.330
tot  0.000  0.526  0.017  0.544
 
band  10 # energy    4.39982359 # occ.  0.00000000
 
ion      s      p      d    tot
  1  0.105  0.124  0.035  0.264
  2  0.026  0.047  0.042  0.115
tot  0.131  0.171  0.077  0.379
 
band  11 # energy    5.46922678 # occ.  0.00000000
 
ion      s      p      d    tot
  1  0.095  0.071  0.045  0.212
  2  0.051  0.099  0.035  0.185
tot  0.146  0.170  0.080  0.396
 
band  12 # energy   10.87967422 # occ.  0.00000000
 
ion      s      p      d    tot
  1  0.000  0.289  0.046  0.334
  2  0.000  0.199  0.067  0.266
tot  0.000  0.487  0.113  0.600
 
band  13 # energy   10.87967432 # occ.  0.00000000
 
ion      s      p      d    tot
  1  0.000  0.289  0.046  0.334
  2  0.000  0.199  0.067  0.266
tot  0.000  0.487  0.113  0.600
 
band  14 # energy   11.43598674 # occ.  0.00000000
 
ion      s      p      d    tot
  1  0.074  0.040  0.049  0.163
  2  0.074  0.226  0.034  0.333
tot  0.147  0.266  0.083  0.496
 
band  15 # energy   14.86285995 # occ.  0.00000000
 
ion      s      p      d    tot
  1  0.000  0.000  0.138  0.138
  2  0.000  0.000  0.219  0.219
tot  0.000  0.000  0.357  0.357
 