   2   2   1   0
  0.2258839E+02  0.3997699E-09  0.3997699E-09  0.3997699E-09  0.5000000E-15
  1.000000000000000E-004
  CAR 
 GaAs                                    
      6.00000000      2.50000000 9999      3.62652531      1.00000000
      2.500  0.7040E+00  0.1766E+02
      2.500  0.7036E+00  0.1766E+02
      2.501  0.7032E+00  0.1766E+02
      2.501  0.7028E+00  0.1766E+02
      2.501  0.7023E+00  0.1766E+02
      2.502  0.7019E+00  0.1766E+02
      2.502  0.7015E+00  0.1766E+02
      2.502  0.7011E+00  0.1766E+02
      2.503  0.7006E+00  0.1766E+02
      2.503  0.7002E+00  0.1766E+02
      2.504  0.6998E+00  0.1766E+02
      2.504  0.6994E+00  0.1766E+02
      2.504  0.6989E+00  0.1766E+02
      2.505  0.6985E+00  0.1766E+02
      2.505  0.6981E+00  0.1766E+02
      2.505  0.6976E+00  0.1766E+02
      2.506  0.6972E+00  0.1766E+02
      2.506  0.6968E+00  0.1766E+02
      2.506  0.6964E+00  0.1766E+02
      2.507  0.6959E+00  0.1766E+02
      2.507  0.6955E+00  0.1766E+02
      2.507  0.6951E+00  0.1766E+02
      2.508  0.6946E+00  0.1766E+02
      2.508  0.6942E+00  0.1767E+02
      2.508  0.6938E+00  0.1767E+02
      2.509  0.6934E+00  0.1767E+02
      2.509  0.6929E+00  0.1767E+02
      2.509  0.6925E+00  0.1767E+02
      2.510  0.6921E+00  0.1767E+02
      2.510  0.6916E+00  0.1767E+02
      2.511  0.6912E+00  0.1767E+02
      2.511  0.6908E+00  0.1767E+02
      2.511  0.6903E+00  0.1767E+02
      2.512  0.6899E+00  0.1767E+02
      2.512  0.6895E+00  0.1767E+02
      2.512  0.6890E+00  0.1767E+02
      2.513  0.6886E+00  0.1767E+02
      2.513  0.6882E+00  0.1767E+02
      2.513  0.6877E+00  0.1767E+02
      2.514  0.6873E+00  0.1767E+02
      2.514  0.6869E+00  0.1767E+02
      2.514  0.6864E+00  0.1767E+02
      2.515  0.6860E+00  0.1767E+02
      2.515  0.6856E+00  0.1767E+02
      2.515  0.6851E+00  0.1767E+02
      2.516  0.6847E+00  0.1767E+02
      2.516  0.6843E+00  0.1767E+02
      2.516  0.6839E+00  0.1767E+02
      2.517  0.6834E+00  0.1767E+02
      2.517  0.6830E+00  0.1767E+02
      2.518  0.6826E+00  0.1767E+02
      2.518  0.6821E+00  0.1767E+02
      2.518  0.6817E+00  0.1767E+02
      2.519  0.6813E+00  0.1767E+02
      2.519  0.6809E+00  0.1767E+02
      2.519  0.6804E+00  0.1767E+02
      2.520  0.6800E+00  0.1767E+02
      2.520  0.6796E+00  0.1767E+02
      2.520  0.6792E+00  0.1767E+02
      2.521  0.6788E+00  0.1767E+02
      2.521  0.6783E+00  0.1767E+02
      2.521  0.6779E+00  0.1767E+02
      2.522  0.6775E+00  0.1767E+02
      2.522  0.6771E+00  0.1767E+02
      2.522  0.6766E+00  0.1767E+02
      2.523  0.6762E+00  0.1768E+02
      2.523  0.6758E+00  0.1768E+02
      2.523  0.6754E+00  0.1768E+02
      2.524  0.6750E+00  0.1768E+02
      2.524  0.6746E+00  0.1768E+02
      2.525  0.6741E+00  0.1768E+02
      2.525  0.6737E+00  0.1768E+02
      2.525  0.6733E+00  0.1768E+02
      2.526  0.6729E+00  0.1768E+02
      2.526  0.6725E+00  0.1768E+02
      2.526  0.6721E+00  0.1768E+02
      2.527  0.6716E+00  0.1768E+02
      2.527  0.6712E+00  0.1768E+02
      2.527  0.6708E+00  0.1768E+02
      2.528  0.6704E+00  0.1768E+02
      2.528  0.6700E+00  0.1768E+02
      2.528  0.6696E+00  0.1768E+02
      2.529  0.6692E+00  0.1768E+02
      2.529  0.6688E+00  0.1768E+02
      2.529  0.6683E+00  0.1768E+02
      2.530  0.6679E+00  0.1768E+02
      2.530  0.6675E+00  0.1768E+02
      2.530  0.6671E+00  0.1768E+02
      2.531  0.6667E+00  0.1768E+02
      2.531  0.6663E+00  0.1768E+02
      2.532  0.6659E+00  0.1768E+02
      2.532  0.6655E+00  0.1768E+02
      2.532  0.6651E+00  0.1768E+02
      2.533  0.6647E+00  0.1768E+02
      2.533  0.6643E+00  0.1768E+02
      2.533  0.6639E+00  0.1768E+02
      2.534  0.6635E+00  0.1768E+02
      2.534  0.6631E+00  0.1768E+02
      2.534  0.6626E+00  0.1768E+02
      2.535  0.6622E+00  0.1768E+02
      2.535  0.6618E+00  0.1768E+02
      2.535  0.6614E+00  0.1768E+02
      2.536  0.6610E+00  0.1768E+02
      2.536  0.6606E+00  0.1768E+02
      2.536  0.6602E+00  0.1768E+02
      2.537  0.6598E+00  0.1768E+02
      2.537  0.6594E+00  0.1768E+02
      2.537  0.6590E+00  0.1768E+02
      2.538  0.6586E+00  0.1769E+02
      2.538  0.6582E+00  0.1769E+02
      2.539  0.6578E+00  0.1769E+02
      2.539  0.6574E+00  0.1769E+02
      2.539  0.6571E+00  0.1769E+02
      2.540  0.6567E+00  0.1769E+02
      2.540  0.6563E+00  0.1769E+02
      2.540  0.6559E+00  0.1769E+02
      2.541  0.6555E+00  0.1769E+02
      2.541  0.6551E+00  0.1769E+02
      2.541  0.6547E+00  0.1769E+02
      2.542  0.6543E+00  0.1769E+02
      2.542  0.6539E+00  0.1769E+02
      2.542  0.6535E+00  0.1769E+02
      2.543  0.6531E+00  0.1769E+02
      2.543  0.6527E+00  0.1769E+02
      2.543  0.6523E+00  0.1769E+02
      2.544  0.6519E+00  0.1769E+02
      2.544  0.6515E+00  0.1769E+02
      2.544  0.6512E+00  0.1769E+02
      2.545  0.6508E+00  0.1769E+02
      2.545  0.6504E+00  0.1769E+02
      2.546  0.6500E+00  0.1769E+02
      2.546  0.6496E+00  0.1769E+02
      2.546  0.6492E+00  0.1769E+02
      2.547  0.6488E+00  0.1769E+02
      2.547  0.6484E+00  0.1769E+02
      2.547  0.6481E+00  0.1769E+02
      2.548  0.6477E+00  0.1769E+02
      2.548  0.6473E+00  0.1769E+02
      2.548  0.6469E+00  0.1769E+02
      2.549  0.6465E+00  0.1769E+02
      2.549  0.6461E+00  0.1769E+02
      2.549  0.6458E+00  0.1769E+02
      2.550  0.6454E+00  0.1769E+02
      2.550  0.6450E+00  0.1769E+02
      2.550  0.6446E+00  0.1769E+02
      2.551  0.6442E+00  0.1769E+02
      2.551  0.6439E+00  0.1769E+02
      2.551  0.6435E+00  0.1769E+02
      2.552  0.6431E+00  0.1769E+02
      2.552  0.6427E+00  0.1769E+02
      2.553  0.6423E+00  0.1769E+02
      2.553  0.6420E+00  0.1769E+02
      2.553  0.6416E+00  0.1770E+02
      2.554  0.6412E+00  0.1770E+02
      2.554  0.6408E+00  0.1770E+02
      2.554  0.6405E+00  0.1770E+02
      2.555  0.6401E+00  0.1770E+02
      2.555  0.6397E+00  0.1770E+02
      2.555  0.6393E+00  0.1770E+02
      2.556  0.6390E+00  0.1770E+02
      2.556  0.6386E+00  0.1770E+02
      2.556  0.6382E+00  0.1770E+02
      2.557  0.6378E+00  0.1770E+02
      2.557  0.6375E+00  0.1770E+02
      2.557  0.6371E+00  0.1770E+02
      2.558  0.6367E+00  0.1770E+02
      2.558  0.6363E+00  0.1770E+02
      2.558  0.6360E+00  0.1770E+02
      2.559  0.6356E+00  0.1770E+02
      2.559  0.6352E+00  0.1770E+02
      2.560  0.6349E+00  0.1770E+02
      2.560  0.6345E+00  0.1770E+02
      2.560  0.6341E+00  0.1770E+02
      2.561  0.6338E+00  0.1770E+02
      2.561  0.6334E+00  0.1770E+02
      2.561  0.6330E+00  0.1770E+02
      2.562  0.6327E+00  0.1770E+02
      2.562  0.6323E+00  0.1770E+02
      2.562  0.6319E+00  0.1770E+02
      2.563  0.6316E+00  0.1770E+02
      2.563  0.6312E+00  0.1770E+02
      2.563  0.6309E+00  0.1770E+02
      2.564  0.6305E+00  0.1770E+02
      2.564  0.6301E+00  0.1770E+02
      2.564  0.6298E+00  0.1770E+02
      2.565  0.6294E+00  0.1770E+02
      2.565  0.6290E+00  0.1770E+02
      2.565  0.6287E+00  0.1770E+02
      2.566  0.6283E+00  0.1770E+02
      2.566  0.6280E+00  0.1770E+02
      2.567  0.6276E+00  0.1770E+02
      2.567  0.6272E+00  0.1770E+02
      2.567  0.6269E+00  0.1770E+02
      2.568  0.6265E+00  0.1770E+02
      2.568  0.6262E+00  0.1770E+02
      2.568  0.6258E+00  0.1770E+02
      2.569  0.6255E+00  0.1770E+02
      2.569  0.6251E+00  0.1771E+02
      2.569  0.6248E+00  0.1771E+02
      2.570  0.6244E+00  0.1771E+02
      2.570  0.6240E+00  0.1771E+02
      2.570  0.6237E+00  0.1771E+02
      2.571  0.6233E+00  0.1771E+02
      2.571  0.6230E+00  0.1771E+02
      2.571  0.6226E+00  0.1771E+02
      2.572  0.6223E+00  0.1771E+02
      2.572  0.6219E+00  0.1771E+02
      2.572  0.6216E+00  0.1771E+02
      2.573  0.6212E+00  0.1771E+02
      2.573  0.6209E+00  0.1771E+02
      2.574  0.6205E+00  0.1771E+02
      2.574  0.6202E+00  0.1771E+02
      2.574  0.6198E+00  0.1771E+02
      2.575  0.6195E+00  0.1771E+02
      2.575  0.6191E+00  0.1771E+02
      2.575  0.6188E+00  0.1771E+02
      2.576  0.6184E+00  0.1771E+02
      2.576  0.6181E+00  0.1771E+02
      2.576  0.6178E+00  0.1771E+02
      2.577  0.6174E+00  0.1771E+02
      2.577  0.6171E+00  0.1771E+02
      2.577  0.6167E+00  0.1771E+02
      2.578  0.6164E+00  0.1771E+02
      2.578  0.6160E+00  0.1771E+02
      2.578  0.6157E+00  0.1771E+02
      2.579  0.6154E+00  0.1771E+02
      2.579  0.6150E+00  0.1771E+02
      2.579  0.6147E+00  0.1771E+02
      2.580  0.6143E+00  0.1771E+02
      2.580  0.6140E+00  0.1771E+02
      2.581  0.6136E+00  0.1771E+02
      2.581  0.6133E+00  0.1771E+02
      2.581  0.6130E+00  0.1771E+02
      2.582  0.6126E+00  0.1771E+02
      2.582  0.6123E+00  0.1771E+02
      2.582  0.6120E+00  0.1771E+02
      2.583  0.6116E+00  0.1771E+02
      2.583  0.6113E+00  0.1771E+02
      2.583  0.6109E+00  0.1771E+02
      2.584  0.6106E+00  0.1771E+02
      2.584  0.6103E+00  0.1771E+02
      2.584  0.6099E+00  0.1771E+02
      2.585  0.6096E+00  0.1771E+02
      2.585  0.6093E+00  0.1772E+02
      2.585  0.6089E+00  0.1772E+02
      2.586  0.6086E+00  0.1772E+02
      2.586  0.6083E+00  0.1772E+02
      2.586  0.6079E+00  0.1772E+02
      2.587  0.6076E+00  0.1772E+02
      2.587  0.6073E+00  0.1772E+02
      2.588  0.6070E+00  0.1772E+02
      2.588  0.6066E+00  0.1772E+02
      2.588  0.6063E+00  0.1772E+02
      2.589  0.6059E+00  0.1772E+02
      2.589  0.6056E+00  0.1772E+02
      2.589  0.6053E+00  0.1772E+02
      2.590  0.6049E+00  0.1772E+02
      2.590  0.6046E+00  0.1772E+02
      2.590  0.6043E+00  0.1772E+02
      2.591  0.6039E+00  0.1772E+02
      2.591  0.6036E+00  0.1772E+02
      2.591  0.6033E+00  0.1772E+02
      2.592  0.6030E+00  0.1772E+02
      2.592  0.6026E+00  0.1772E+02
      2.592  0.6023E+00  0.1772E+02
      2.593  0.6020E+00  0.1772E+02
      2.593  0.6016E+00  0.1772E+02
      2.593  0.6013E+00  0.1772E+02
      2.594  0.6010E+00  0.1772E+02
      2.594  0.6007E+00  0.1772E+02
      2.595  0.6003E+00  0.1772E+02
      2.595  0.6000E+00  0.1772E+02
      2.595  0.5997E+00  0.1772E+02
      2.596  0.5994E+00  0.1772E+02
      2.596  0.5990E+00  0.1772E+02
      2.596  0.5987E+00  0.1772E+02
      2.597  0.5984E+00  0.1772E+02
      2.597  0.5981E+00  0.1772E+02
      2.597  0.5978E+00  0.1772E+02
      2.598  0.5974E+00  0.1772E+02
      2.598  0.5971E+00  0.1772E+02
      2.598  0.5968E+00  0.1772E+02
      2.599  0.5965E+00  0.1772E+02
      2.599  0.5962E+00  0.1772E+02
      2.599  0.5959E+00  0.1772E+02
      2.600  0.5955E+00  0.1772E+02
      2.600  0.5952E+00  0.1772E+02
      2.600  0.5949E+00  0.1772E+02
      2.601  0.5946E+00  0.1772E+02
      2.601  0.5943E+00  0.1772E+02
      2.602  0.5940E+00  0.1772E+02
      2.602  0.5937E+00  0.1773E+02
      2.602  0.5934E+00  0.1773E+02
      2.603  0.5931E+00  0.1773E+02
      2.603  0.5927E+00  0.1773E+02
      2.603  0.5924E+00  0.1773E+02
      2.604  0.5921E+00  0.1773E+02
      2.604  0.5918E+00  0.1773E+02
      2.604  0.5915E+00  0.1773E+02
      2.605  0.5912E+00  0.1773E+02
      2.605  0.5909E+00  0.1773E+02
      2.605  0.5906E+00  0.1773E+02
      2.606  0.5903E+00  0.1773E+02
      2.606  0.5900E+00  0.1773E+02
      2.606  0.5897E+00  0.1773E+02
      2.607  0.5894E+00  0.1773E+02
      2.607  0.5891E+00  0.1773E+02
      2.607  0.5888E+00  0.1773E+02
      2.608  0.5885E+00  0.1773E+02
      2.608  0.5882E+00  0.1773E+02
      2.609  0.5879E+00  0.1773E+02
      2.609  0.5876E+00  0.1773E+02
      2.609  0.5873E+00  0.1773E+02
      2.610  0.5870E+00  0.1773E+02
      2.610  0.5867E+00  0.1773E+02
      2.610  0.5864E+00  0.1773E+02
      2.611  0.5861E+00  0.1773E+02
      2.611  0.5858E+00  0.1773E+02
      2.611  0.5855E+00  0.1773E+02
      2.612  0.5852E+00  0.1773E+02
      2.612  0.5849E+00  0.1773E+02
      2.612  0.5847E+00  0.1773E+02
      2.613  0.5844E+00  0.1773E+02
      2.613  0.5841E+00  0.1773E+02
      2.613  0.5838E+00  0.1773E+02
      2.614  0.5835E+00  0.1773E+02
      2.614  0.5832E+00  0.1773E+02
      2.614  0.5829E+00  0.1773E+02
      2.615  0.5826E+00  0.1773E+02
      2.615  0.5823E+00  0.1773E+02
      2.616  0.5821E+00  0.1773E+02
      2.616  0.5818E+00  0.1773E+02
      2.616  0.5815E+00  0.1773E+02
      2.617  0.5812E+00  0.1773E+02
      2.617  0.5809E+00  0.1773E+02
      2.617  0.5806E+00  0.1773E+02
      2.618  0.5804E+00  0.1773E+02
      2.618  0.5801E+00  0.1773E+02
      2.618  0.5798E+00  0.1773E+02
      2.619  0.5795E+00  0.1774E+02
      2.619  0.5792E+00  0.1774E+02
      2.619  0.5790E+00  0.1774E+02
      2.620  0.5787E+00  0.1774E+02
      2.620  0.5784E+00  0.1774E+02
      2.620  0.5781E+00  0.1774E+02
      2.621  0.5779E+00  0.1774E+02
      2.621  0.5776E+00  0.1774E+02
      2.621  0.5773E+00  0.1774E+02
      2.622  0.5770E+00  0.1774E+02
      2.622  0.5768E+00  0.1774E+02
      2.623  0.5765E+00  0.1774E+02
      2.623  0.5762E+00  0.1774E+02
      2.623  0.5760E+00  0.1774E+02
      2.624  0.5757E+00  0.1774E+02
      2.624  0.5754E+00  0.1774E+02
      2.624  0.5751E+00  0.1774E+02
      2.625  0.5749E+00  0.1774E+02
      2.625  0.5746E+00  0.1774E+02
      2.625  0.5743E+00  0.1774E+02
      2.626  0.5741E+00  0.1774E+02
      2.626  0.5738E+00  0.1774E+02
      2.626  0.5735E+00  0.1774E+02
      2.627  0.5732E+00  0.1774E+02
      2.627  0.5730E+00  0.1774E+02
      2.627  0.5727E+00  0.1774E+02
      2.628  0.5724E+00  0.1774E+02
      2.628  0.5722E+00  0.1774E+02
      2.628  0.5719E+00  0.1774E+02
      2.629  0.5716E+00  0.1774E+02
      2.629  0.5714E+00  0.1774E+02
      2.630  0.5711E+00  0.1774E+02
      2.630  0.5708E+00  0.1774E+02
      2.630  0.5706E+00  0.1774E+02
      2.631  0.5703E+00  0.1774E+02
      2.631  0.5700E+00  0.1774E+02
      2.631  0.5697E+00  0.1774E+02
      2.632  0.5695E+00  0.1774E+02
      2.632  0.5692E+00  0.1774E+02
      2.632  0.5689E+00  0.1774E+02
      2.633  0.5687E+00  0.1774E+02
      2.633  0.5684E+00  0.1774E+02
      2.633  0.5681E+00  0.1774E+02
      2.634  0.5679E+00  0.1774E+02
      2.634  0.5676E+00  0.1774E+02
      2.634  0.5673E+00  0.1774E+02
      2.635  0.5671E+00  0.1774E+02
      2.635  0.5668E+00  0.1774E+02
      2.635  0.5665E+00  0.1774E+02
      2.636  0.5663E+00  0.1774E+02
      2.636  0.5660E+00  0.1775E+02
      2.637  0.5657E+00  0.1775E+02
      2.637  0.5655E+00  0.1775E+02
      2.637  0.5652E+00  0.1775E+02
      2.638  0.5649E+00  0.1775E+02
      2.638  0.5647E+00  0.1775E+02
      2.638  0.5644E+00  0.1775E+02
      2.639  0.5641E+00  0.1775E+02
      2.639  0.5639E+00  0.1775E+02
      2.639  0.5636E+00  0.1775E+02
      2.640  0.5633E+00  0.1775E+02
      2.640  0.5631E+00  0.1775E+02
      2.640  0.5628E+00  0.1775E+02
      2.641  0.5625E+00  0.1775E+02
      2.641  0.5623E+00  0.1775E+02
      2.641  0.5620E+00  0.1775E+02
      2.642  0.5617E+00  0.1775E+02
      2.642  0.5615E+00  0.1775E+02
      2.642  0.5612E+00  0.1775E+02
      2.643  0.5609E+00  0.1775E+02
      2.643  0.5607E+00  0.1775E+02
      2.644  0.5604E+00  0.1775E+02
      2.644  0.5601E+00  0.1775E+02
      2.644  0.5599E+00  0.1775E+02
      2.645  0.5596E+00  0.1775E+02
      2.645  0.5593E+00  0.1775E+02
      2.645  0.5591E+00  0.1775E+02
      2.646  0.5588E+00  0.1775E+02
      2.646  0.5585E+00  0.1775E+02
      2.646  0.5583E+00  0.1775E+02
      2.647  0.5580E+00  0.1775E+02
      2.647  0.5577E+00  0.1775E+02
      2.647  0.5575E+00  0.1775E+02
      2.648  0.5572E+00  0.1775E+02
      2.648  0.5569E+00  0.1775E+02
      2.648  0.5567E+00  0.1775E+02
      2.649  0.5564E+00  0.1775E+02
      2.649  0.5561E+00  0.1775E+02
      2.649  0.5559E+00  0.1775E+02
      2.650  0.5556E+00  0.1775E+02
      2.650  0.5553E+00  0.1775E+02
      2.651  0.5551E+00  0.1775E+02
      2.651  0.5548E+00  0.1775E+02
      2.651  0.5546E+00  0.1775E+02
      2.652  0.5543E+00  0.1775E+02
      2.652  0.5540E+00  0.1775E+02
      2.652  0.5538E+00  0.1775E+02
      2.653  0.5535E+00  0.1775E+02
      2.653  0.5532E+00  0.1775E+02
      2.653  0.5530E+00  0.1775E+02
      2.654  0.5527E+00  0.1775E+02
      2.654  0.5524E+00  0.1776E+02
      2.654  0.5522E+00  0.1776E+02
      2.655  0.5519E+00  0.1776E+02
      2.655  0.5516E+00  0.1776E+02
      2.655  0.5514E+00  0.1776E+02
      2.656  0.5511E+00  0.1776E+02
      2.656  0.5509E+00  0.1776E+02
      2.656  0.5506E+00  0.1776E+02
      2.657  0.5503E+00  0.1776E+02
      2.657  0.5501E+00  0.1776E+02
      2.658  0.5498E+00  0.1776E+02
      2.658  0.5495E+00  0.1776E+02
      2.658  0.5493E+00  0.1776E+02
      2.659  0.5490E+00  0.1776E+02
      2.659  0.5487E+00  0.1776E+02
      2.659  0.5485E+00  0.1776E+02
      2.660  0.5482E+00  0.1776E+02
      2.660  0.5480E+00  0.1776E+02
      2.660  0.5477E+00  0.1776E+02
      2.661  0.5474E+00  0.1776E+02
      2.661  0.5472E+00  0.1776E+02
      2.661  0.5469E+00  0.1776E+02
      2.662  0.5466E+00  0.1776E+02
      2.662  0.5464E+00  0.1776E+02
      2.662  0.5461E+00  0.1776E+02
      2.663  0.5459E+00  0.1776E+02
      2.663  0.5456E+00  0.1776E+02
      2.663  0.5453E+00  0.1776E+02
      2.664  0.5451E+00  0.1776E+02
      2.664  0.5448E+00  0.1776E+02
      2.665  0.5445E+00  0.1776E+02
      2.665  0.5443E+00  0.1776E+02
      2.665  0.5440E+00  0.1776E+02
      2.666  0.5438E+00  0.1776E+02
      2.666  0.5435E+00  0.1776E+02
      2.666  0.5432E+00  0.1776E+02
      2.667  0.5430E+00  0.1776E+02
      2.667  0.5427E+00  0.1776E+02
      2.667  0.5425E+00  0.1776E+02
      2.668  0.5422E+00  0.1776E+02
      2.668  0.5419E+00  0.1776E+02
      2.668  0.5417E+00  0.1776E+02
      2.669  0.5414E+00  0.1776E+02
      2.669  0.5411E+00  0.1776E+02
      2.669  0.5409E+00  0.1776E+02
      2.670  0.5406E+00  0.1776E+02
      2.670  0.5404E+00  0.1776E+02
      2.670  0.5401E+00  0.1776E+02
      2.671  0.5398E+00  0.1776E+02
      2.671  0.5396E+00  0.1776E+02
      2.672  0.5393E+00  0.1776E+02
      2.672  0.5391E+00  0.1776E+02
      2.672  0.5388E+00  0.1776E+02
      2.673  0.5385E+00  0.1777E+02
      2.673  0.5383E+00  0.1777E+02
      2.673  0.5380E+00  0.1777E+02
      2.674  0.5378E+00  0.1777E+02
      2.674  0.5375E+00  0.1777E+02
      2.674  0.5372E+00  0.1777E+02
      2.675  0.5370E+00  0.1777E+02
      2.675  0.5367E+00  0.1777E+02
      2.675  0.5365E+00  0.1777E+02
      2.676  0.5362E+00  0.1777E+02
      2.676  0.5359E+00  0.1777E+02
      2.676  0.5357E+00  0.1777E+02
      2.677  0.5354E+00  0.1777E+02
      2.677  0.5351E+00  0.1777E+02
      2.677  0.5349E+00  0.1777E+02
      2.678  0.5346E+00  0.1777E+02
      2.678  0.5344E+00  0.1777E+02
      2.679  0.5341E+00  0.1777E+02
      2.679  0.5339E+00  0.1777E+02
      2.679  0.5336E+00  0.1777E+02
      2.680  0.5333E+00  0.1777E+02
      2.680  0.5331E+00  0.1777E+02
      2.680  0.5328E+00  0.1777E+02
      2.681  0.5326E+00  0.1777E+02
      2.681  0.5323E+00  0.1777E+02
      2.681  0.5320E+00  0.1777E+02
      2.682  0.5318E+00  0.1777E+02
      2.682  0.5315E+00  0.1777E+02
      2.682  0.5313E+00  0.1777E+02
      2.683  0.5310E+00  0.1777E+02
      2.683  0.5307E+00  0.1777E+02
      2.683  0.5305E+00  0.1777E+02
      2.684  0.5302E+00  0.1777E+02
      2.684  0.5300E+00  0.1777E+02
      2.684  0.5297E+00  0.1777E+02
      2.685  0.5294E+00  0.1777E+02
      2.685  0.5292E+00  0.1777E+02
      2.686  0.5289E+00  0.1777E+02
      2.686  0.5287E+00  0.1777E+02
      2.686  0.5284E+00  0.1777E+02
      2.687  0.5282E+00  0.1777E+02
      2.687  0.5279E+00  0.1777E+02
      2.687  0.5276E+00  0.1777E+02
      2.688  0.5274E+00  0.1777E+02
      2.688  0.5271E+00  0.1777E+02
      2.688  0.5269E+00  0.1777E+02
      2.689  0.5266E+00  0.1777E+02
      2.689  0.5263E+00  0.1777E+02
      2.689  0.5261E+00  0.1777E+02
      2.690  0.5258E+00  0.1777E+02
      2.690  0.5256E+00  0.1777E+02
      2.690  0.5253E+00  0.1777E+02
      2.691  0.5251E+00  0.1777E+02
      2.691  0.5248E+00  0.1778E+02
      2.691  0.5245E+00  0.1778E+02
      2.692  0.5243E+00  0.1778E+02
      2.692  0.5240E+00  0.1778E+02
      2.693  0.5238E+00  0.1778E+02
      2.693  0.5235E+00  0.1778E+02
      2.693  0.5233E+00  0.1778E+02
      2.694  0.5230E+00  0.1778E+02
      2.694  0.5227E+00  0.1778E+02
      2.694  0.5225E+00  0.1778E+02
      2.695  0.5222E+00  0.1778E+02
      2.695  0.5220E+00  0.1778E+02
      2.695  0.5217E+00  0.1778E+02
      2.696  0.5215E+00  0.1778E+02
      2.696  0.5212E+00  0.1778E+02
      2.696  0.5209E+00  0.1778E+02
      2.697  0.5207E+00  0.1778E+02
      2.697  0.5204E+00  0.1778E+02
      2.697  0.5202E+00  0.1778E+02
      2.698  0.5199E+00  0.1778E+02
      2.698  0.5197E+00  0.1778E+02
      2.698  0.5194E+00  0.1778E+02
      2.699  0.5191E+00  0.1778E+02
      2.699  0.5189E+00  0.1778E+02
      2.700  0.5186E+00  0.1778E+02
      2.700  0.5184E+00  0.1778E+02
      2.700  0.5181E+00  0.1778E+02
      2.701  0.5179E+00  0.1778E+02
      2.701  0.5176E+00  0.1778E+02
      2.701  0.5174E+00  0.1778E+02
      2.702  0.5171E+00  0.1778E+02
      2.702  0.5168E+00  0.1778E+02
      2.702  0.5166E+00  0.1778E+02
      2.703  0.5163E+00  0.1778E+02
      2.703  0.5161E+00  0.1778E+02
      2.703  0.5158E+00  0.1778E+02
      2.704  0.5156E+00  0.1778E+02
      2.704  0.5153E+00  0.1778E+02
      2.704  0.5151E+00  0.1778E+02
      2.705  0.5148E+00  0.1778E+02
      2.705  0.5145E+00  0.1778E+02
      2.705  0.5143E+00  0.1778E+02
      2.706  0.5140E+00  0.1778E+02
      2.706  0.5138E+00  0.1778E+02
      2.707  0.5135E+00  0.1778E+02
      2.707  0.5133E+00  0.1778E+02
      2.707  0.5130E+00  0.1778E+02
      2.708  0.5128E+00  0.1778E+02
      2.708  0.5125E+00  0.1778E+02
      2.708  0.5122E+00  0.1778E+02
      2.709  0.5120E+00  0.1778E+02
      2.709  0.5117E+00  0.1778E+02
      2.709  0.5115E+00  0.1778E+02
      2.710  0.5112E+00  0.1778E+02
      2.710  0.5110E+00  0.1778E+02
      2.710  0.5107E+00  0.1778E+02
      2.711  0.5105E+00  0.1779E+02
      2.711  0.5102E+00  0.1779E+02
      2.711  0.5100E+00  0.1779E+02
      2.712  0.5097E+00  0.1779E+02
      2.712  0.5094E+00  0.1779E+02
      2.712  0.5092E+00  0.1779E+02
      2.713  0.5089E+00  0.1779E+02
      2.713  0.5087E+00  0.1779E+02
      2.714  0.5084E+00  0.1779E+02
      2.714  0.5082E+00  0.1779E+02
      2.714  0.5079E+00  0.1779E+02
      2.715  0.5077E+00  0.1779E+02
      2.715  0.5074E+00  0.1779E+02
      2.715  0.5072E+00  0.1779E+02
      2.716  0.5069E+00  0.1779E+02
      2.716  0.5067E+00  0.1779E+02
      2.716  0.5064E+00  0.1779E+02
      2.717  0.5062E+00  0.1779E+02
      2.717  0.5059E+00  0.1779E+02
      2.717  0.5056E+00  0.1779E+02
      2.718  0.5054E+00  0.1779E+02
      2.718  0.5051E+00  0.1779E+02
      2.718  0.5049E+00  0.1779E+02
      2.719  0.5046E+00  0.1779E+02
      2.719  0.5044E+00  0.1779E+02
      2.719  0.5041E+00  0.1779E+02
      2.720  0.5039E+00  0.1779E+02
      2.720  0.5036E+00  0.1779E+02
      2.721  0.5034E+00  0.1779E+02
      2.721  0.5031E+00  0.1779E+02
      2.721  0.5029E+00  0.1779E+02
      2.722  0.5026E+00  0.1779E+02
      2.722  0.5024E+00  0.1779E+02
      2.722  0.5021E+00  0.1779E+02
      2.723  0.5019E+00  0.1779E+02
      2.723  0.5016E+00  0.1779E+02
      2.723  0.5014E+00  0.1779E+02
      2.724  0.5011E+00  0.1779E+02
      2.724  0.5008E+00  0.1779E+02
      2.724  0.5006E+00  0.1779E+02
      2.725  0.5003E+00  0.1779E+02
      2.725  0.5001E+00  0.1779E+02
      2.725  0.4998E+00  0.1779E+02
      2.726  0.4996E+00  0.1779E+02
      2.726  0.4993E+00  0.1779E+02
      2.726  0.4991E+00  0.1779E+02
      2.727  0.4988E+00  0.1779E+02
      2.727  0.4986E+00  0.1779E+02
      2.728  0.4983E+00  0.1779E+02
      2.728  0.4981E+00  0.1779E+02
      2.728  0.4978E+00  0.1779E+02
      2.729  0.4976E+00  0.1779E+02
      2.729  0.4973E+00  0.1779E+02
      2.729  0.4971E+00  0.1779E+02
      2.730  0.4968E+00  0.1779E+02
      2.730  0.4966E+00  0.1779E+02
      2.730  0.4963E+00  0.1780E+02
      2.731  0.4961E+00  0.1780E+02
      2.731  0.4958E+00  0.1780E+02
      2.731  0.4956E+00  0.1780E+02
      2.732  0.4953E+00  0.1780E+02
      2.732  0.4951E+00  0.1780E+02
      2.732  0.4948E+00  0.1780E+02
      2.733  0.4946E+00  0.1780E+02
      2.733  0.4943E+00  0.1780E+02
      2.733  0.4941E+00  0.1780E+02
      2.734  0.4938E+00  0.1780E+02
      2.734  0.4936E+00  0.1780E+02
      2.735  0.4933E+00  0.1780E+02
      2.735  0.4931E+00  0.1780E+02
      2.735  0.4928E+00  0.1780E+02
      2.736  0.4926E+00  0.1780E+02
      2.736  0.4923E+00  0.1780E+02
      2.736  0.4921E+00  0.1780E+02
      2.737  0.4918E+00  0.1780E+02
      2.737  0.4916E+00  0.1780E+02
      2.737  0.4913E+00  0.1780E+02
      2.738  0.4911E+00  0.1780E+02
      2.738  0.4908E+00  0.1780E+02
      2.738  0.4906E+00  0.1780E+02
      2.739  0.4903E+00  0.1780E+02
      2.739  0.4901E+00  0.1780E+02
      2.739  0.4898E+00  0.1780E+02
      2.740  0.4896E+00  0.1780E+02
      2.740  0.4893E+00  0.1780E+02
      2.740  0.4891E+00  0.1780E+02
      2.741  0.4888E+00  0.1780E+02
      2.741  0.4886E+00  0.1780E+02
      2.742  0.4883E+00  0.1780E+02
      2.742  0.4881E+00  0.1780E+02
      2.742  0.4878E+00  0.1780E+02
      2.743  0.4876E+00  0.1780E+02
      2.743  0.4873E+00  0.1780E+02
      2.743  0.4871E+00  0.1780E+02
      2.744  0.4868E+00  0.1780E+02
      2.744  0.4866E+00  0.1780E+02
      2.744  0.4863E+00  0.1780E+02
      2.745  0.4861E+00  0.1780E+02
      2.745  0.4858E+00  0.1780E+02
      2.745  0.4856E+00  0.1780E+02
      2.746  0.4853E+00  0.1780E+02
      2.746  0.4851E+00  0.1780E+02
      2.746  0.4848E+00  0.1780E+02
      2.747  0.4846E+00  0.1780E+02
      2.747  0.4843E+00  0.1780E+02
      2.747  0.4841E+00  0.1780E+02
      2.748  0.4845E+00  0.1780E+02
      2.748  0.4855E+00  0.1780E+02
      2.749  0.4865E+00  0.1780E+02
      2.749  0.4874E+00  0.1780E+02
      2.749  0.4882E+00  0.1780E+02
      2.750  0.4890E+00  0.1780E+02
      2.750  0.4896E+00  0.1780E+02
      2.750  0.4902E+00  0.1780E+02
      2.751  0.4907E+00  0.1780E+02
      2.751  0.4911E+00  0.1781E+02
      2.751  0.4914E+00  0.1781E+02
      2.752  0.4916E+00  0.1781E+02
      2.752  0.4918E+00  0.1781E+02
      2.752  0.4919E+00  0.1781E+02
      2.753  0.4919E+00  0.1781E+02
      2.753  0.4918E+00  0.1781E+02
      2.753  0.4916E+00  0.1781E+02
      2.754  0.4914E+00  0.1781E+02
      2.754  0.4911E+00  0.1781E+02
      2.755  0.4909E+00  0.1781E+02
      2.755  0.4907E+00  0.1781E+02
      2.755  0.4904E+00  0.1781E+02
      2.756  0.4902E+00  0.1781E+02
      2.756  0.4899E+00  0.1781E+02
      2.756  0.4897E+00  0.1781E+02
      2.757  0.4894E+00  0.1781E+02
      2.757  0.4892E+00  0.1781E+02
      2.757  0.4890E+00  0.1781E+02
      2.758  0.4887E+00  0.1781E+02
      2.758  0.4885E+00  0.1781E+02
      2.758  0.4882E+00  0.1781E+02
      2.759  0.4880E+00  0.1781E+02
      2.759  0.4877E+00  0.1781E+02
      2.759  0.4875E+00  0.1781E+02
      2.760  0.4873E+00  0.1781E+02
      2.760  0.4870E+00  0.1781E+02
      2.760  0.4868E+00  0.1781E+02
      2.761  0.4865E+00  0.1781E+02
      2.761  0.4863E+00  0.1781E+02
      2.762  0.4861E+00  0.1781E+02
      2.762  0.4858E+00  0.1781E+02
      2.762  0.4856E+00  0.1781E+02
      2.763  0.4853E+00  0.1781E+02
      2.763  0.4851E+00  0.1781E+02
      2.763  0.4848E+00  0.1781E+02
      2.764  0.4846E+00  0.1781E+02
      2.764  0.4844E+00  0.1781E+02
      2.764  0.4841E+00  0.1781E+02
      2.765  0.4839E+00  0.1781E+02
      2.765  0.4836E+00  0.1781E+02
      2.765  0.4834E+00  0.1781E+02
      2.766  0.4831E+00  0.1781E+02
      2.766  0.4829E+00  0.1781E+02
      2.766  0.4827E+00  0.1781E+02
      2.767  0.4824E+00  0.1781E+02
      2.767  0.4822E+00  0.1781E+02
      2.767  0.4819E+00  0.1781E+02
      2.768  0.4817E+00  0.1781E+02
      2.768  0.4814E+00  0.1781E+02
      2.769  0.4812E+00  0.1781E+02
      2.769  0.4810E+00  0.1781E+02
      2.769  0.4807E+00  0.1781E+02
      2.770  0.4805E+00  0.1781E+02
      2.770  0.4802E+00  0.1781E+02
      2.770  0.4800E+00  0.1781E+02
      2.771  0.4798E+00  0.1781E+02
      2.771  0.4795E+00  0.1781E+02
      2.771  0.4793E+00  0.1782E+02
      2.772  0.4790E+00  0.1782E+02
      2.772  0.4788E+00  0.1782E+02
      2.772  0.4785E+00  0.1782E+02
      2.773  0.4783E+00  0.1782E+02
      2.773  0.4781E+00  0.1782E+02
      2.773  0.4778E+00  0.1782E+02
      2.774  0.4776E+00  0.1782E+02
      2.774  0.4777E+00  0.1782E+02
      2.774  0.4777E+00  0.1782E+02
      2.775  0.4777E+00  0.1782E+02
      2.775  0.4777E+00  0.1782E+02
      2.776  0.4777E+00  0.1782E+02
      2.776  0.4777E+00  0.1782E+02
      2.776  0.4777E+00  0.1782E+02
      2.777  0.4777E+00  0.1782E+02
      2.777  0.4777E+00  0.1782E+02
      2.777  0.4777E+00  0.1782E+02
      2.778  0.4777E+00  0.1782E+02
      2.778  0.4777E+00  0.1782E+02
      2.778  0.4777E+00  0.1782E+02
      2.779  0.4777E+00  0.1782E+02
      2.779  0.4777E+00  0.1782E+02
      2.779  0.4776E+00  0.1782E+02
      2.780  0.4776E+00  0.1782E+02
      2.780  0.4776E+00  0.1782E+02
      2.780  0.4776E+00  0.1782E+02
      2.781  0.4775E+00  0.1782E+02
      2.781  0.4775E+00  0.1782E+02
      2.781  0.4775E+00  0.1782E+02
      2.782  0.4774E+00  0.1782E+02
      2.782  0.4774E+00  0.1782E+02
      2.783  0.4773E+00  0.1782E+02
      2.783  0.4773E+00  0.1782E+02
      2.783  0.4772E+00  0.1782E+02
      2.784  0.4772E+00  0.1782E+02
      2.784  0.4771E+00  0.1782E+02
      2.784  0.4771E+00  0.1782E+02
      2.785  0.4770E+00  0.1782E+02
      2.785  0.4769E+00  0.1782E+02
      2.785  0.4769E+00  0.1782E+02
      2.786  0.4768E+00  0.1782E+02
      2.786  0.4767E+00  0.1782E+02
      2.786  0.4766E+00  0.1782E+02
      2.787  0.4766E+00  0.1782E+02
      2.787  0.4765E+00  0.1782E+02
      2.787  0.4764E+00  0.1782E+02
      2.788  0.4763E+00  0.1782E+02
      2.788  0.4762E+00  0.1782E+02
      2.788  0.4761E+00  0.1782E+02
      2.789  0.4760E+00  0.1782E+02