 vasp.5.4.1 24Jun15 (build Nov 25 2015 16:39:35) complex                        
  
 executed on         CrayXC-Intel date 2016.11.20  01:29:14
 running on  768 total cores
 distrk:  each k-point on   24 cores,   32 groups
 distr:  one band on NCORES_PER_BAND=   1 cores,   24 groups


--------------------------------------------------------------------------------------------------------


 INCAR:
 POTCAR:    PAW_PBE C 08Apr2002                   
 POTCAR:    PAW_PBE N 08Apr2002                   
 POTCAR:    PAW_PBE H 15Jun2001                   
 POTCAR:    PAW_PBE Pb_d 06Sep2000                
 POTCAR:    PAW_PBE I 08Apr2002                   

 ----------------------------------------------------------------------------- 
|                                                                             |
|           W    W    AA    RRRRR   N    N  II  N    N   GGGG   !!!           |
|           W    W   A  A   R    R  NN   N  II  NN   N  G    G  !!!           |
|           W    W  A    A  R    R  N N  N  II  N N  N  G       !!!           |
|           W WW W  AAAAAA  RRRRR   N  N N  II  N  N N  G  GGG   !            |
|           WW  WW  A    A  R   R   N   NN  II  N   NN  G    G                |
|           W    W  A    A  R    R  N    N  II  N    N   GGGG   !!!           |
|                                                                             |
|      For optimal performance we recommend to set                            |
|        NCORE= 4 - approx SQRT( number of cores)                             |
|      NCORE specifies how many cores store one orbital (NPAR=cpu/NCORE).     |
|      This setting can  greatly improve the performance of VASP for DFT.     |
|      The default, NPAR=number of cores might be grossly inefficient         |
|      on modern multi-core architectures or massively parallel machines.     |
|      Do your own testing !!!!                                               |
|      Unfortunately you need to use the default for GW and RPA calculations. |
|      (for HF NCORE is supported but not extensively tested yet)             |
|                                                                             |
 ----------------------------------------------------------------------------- 


 ----------------------------------------------------------------------------- 
|                                                                             |
|           W    W    AA    RRRRR   N    N  II  N    N   GGGG   !!!           |
|           W    W   A  A   R    R  NN   N  II  NN   N  G    G  !!!           |
|           W    W  A    A  R    R  N N  N  II  N N  N  G       !!!           |
|           W WW W  AAAAAA  RRRRR   N  N N  II  N  N N  G  GGG   !            |
|           WW  WW  A    A  R   R   N   NN  II  N   NN  G    G                |
|           W    W  A    A  R    R  N    N  II  N    N   GGGG   !!!           |
|                                                                             |
|      You have enabled k-point parallelism (KPAR>1).                         |
|      This developmental code was originally  written by Paul Kent at ORNL,  |
|      and carefully double checked in Vienna.                                |
|      GW as well as linear response parallelism added by Martijn Marsman     |
|      and Georg Kresse.                                                      |
|      Carefully verify results versus KPAR=1.                                |
|      Report problems to Paul Kent and Vienna.                               |
|                                                                             |
 ----------------------------------------------------------------------------- 

 POTCAR:    PAW_PBE C 08Apr2002                   
   VRHFIN =C: s2p2                                                              
   LEXCH  = PE                                                                  
   EATOM  =   147.1560 eV,   10.8157 Ry                                         
                                                                                
   TITEL  = PAW_PBE C 08Apr2002                                                 
   LULTRA =        F    use ultrasoft PP ?                                      
   IUNSCR =        1    unscreen: 0-lin 1-nonlin 2-no                           
   RPACOR =    1.200    partial core radius                                     
   POMASS =   12.011; ZVAL   =    4.000    mass and valenz                      
   RCORE  =    1.500    outmost cutoff radius                                   
   RWIGS  =    1.630; RWIGS  =    0.863    wigner-seitz radius (au A)           
   ENMAX  =  400.000; ENMIN  =  300.000 eV                                      
   ICORE  =        2    local potential                                         
   LCOR   =        T    correct aug charges                                     
   LPAW   =        T    paw PP                                                  
   EAUG   =  644.873                                                            
   DEXC   =    0.000                                                            
   RMAX   =    1.529    core radius for proj-oper                               
   RAUG   =    1.300    factor for augmentation sphere                          
   RDEP   =    1.501    radius for radial grids                                 
   RDEPT  =    1.300    core radius for aug-charge                              
                                                                                
   Atomic configuration                                                         
    4 entries                                                                   
     n  l   j            E        occ.                                          
     1  0  0.50      -273.3789   2.0000                                         
     2  0  0.50       -13.7508   2.0000                                         
     2  1  0.50        -5.2854   2.0000                                         
     3  2  1.50        -5.4423   0.0000                                         
   Description                                                                  
     l       E           TYP  RCUT    TYP  RCUT                                 
     0    -13.7508458     23  1.200                                             
     0     -8.2022199     23  1.200                                             
     1     -5.2854383     23  1.500                                             
     1     34.0145650     23  1.500                                             
     2     -5.4423304      7  1.500                                             
  local pseudopotential read in
  partial core-charges read in
  partial kinetic energy density read in
  atomic valenz-charges read in
  non local Contribution for L=           0  read in
    real space projection operators read in
  non local Contribution for L=           0  read in
    real space projection operators read in
  non local Contribution for L=           1  read in
    real space projection operators read in
  non local Contribution for L=           1  read in
    real space projection operators read in
    PAW grid and wavefunctions read in
 
   number of l-projection  operators is LMAX  =           4
   number of lm-projection operators is LMMAX =           8
 
 POTCAR:    PAW_PBE N 08Apr2002                   
   VRHFIN =N: s2p3                                                              
   LEXCH  = PE                                                                  
   EATOM  =   264.5486 eV,   19.4438 Ry                                         
                                                                                
   TITEL  = PAW_PBE N 08Apr2002                                                 
   LULTRA =        F    use ultrasoft PP ?                                      
   IUNSCR =        1    unscreen: 0-lin 1-nonlin 2-no                           
   RPACOR =    1.200    partial core radius                                     
   POMASS =   14.001; ZVAL   =    5.000    mass and valenz                      
   RCORE  =    1.500    outmost cutoff radius                                   
   RWIGS  =    1.400; RWIGS  =    0.741    wigner-seitz radius (au A)           
   ENMAX  =  400.000; ENMIN  =  300.000 eV                                      
   ICORE  =        2    local potential                                         
   LCOR   =        T    correct aug charges                                     
   LPAW   =        T    paw PP                                                  
   EAUG   =  627.112                                                            
   DEXC   =    0.000                                                            
   RMAX   =    1.529    core radius for proj-oper                               
   RAUG   =    1.300    factor for augmentation sphere                          
   RDEP   =    1.514    radius for radial grids                                 
   RDEPT  =    1.338    core radius for aug-charge                              
                                                                                
   Atomic configuration                                                         
    4 entries                                                                   
     n  l   j            E        occ.                                          
     1  0  0.50      -384.7179   2.0000                                         
     2  0  0.50       -18.5828   2.0000                                         
     2  1  0.50        -7.0898   3.0000                                         
     3  2  1.50        -6.8029   0.0000                                         
   Description                                                                  
     l       E           TYP  RCUT    TYP  RCUT                                 
     0    -18.5828119     23  1.200                                             
     0    -13.5018863     23  1.200                                             
     1     -7.0897853     23  1.500                                             
     1      9.5240782     23  1.500                                             
     2     -6.8029130      7  1.500                                             
  local pseudopotential read in
  partial core-charges read in
  partial kinetic energy density read in
  atomic valenz-charges read in
  non local Contribution for L=           0  read in
    real space projection operators read in
  non local Contribution for L=           0  read in
    real space projection operators read in
  non local Contribution for L=           1  read in
    real space projection operators read in
  non local Contribution for L=           1  read in
    real space projection operators read in
    PAW grid and wavefunctions read in
 
   number of l-projection  operators is LMAX  =           4
   number of lm-projection operators is LMMAX =           8
 
 POTCAR:    PAW_PBE H 15Jun2001                   
   VRHFIN =H: ultrasoft test                                                    
   LEXCH  = PE                                                                  
   EATOM  =    12.4884 eV,    0.9179 Ry                                         
                                                                                
   TITEL  = PAW_PBE H 15Jun2001                                                 
   LULTRA =        F    use ultrasoft PP ?                                      
   IUNSCR =        0    unscreen: 0-lin 1-nonlin 2-no                           
   RPACOR =    0.000    partial core radius                                     
   POMASS =    1.000; ZVAL   =    1.000    mass and valenz                      
   RCORE  =    1.100    outmost cutoff radius                                   
   RWIGS  =    0.700; RWIGS  =    0.370    wigner-seitz radius (au A)           
   ENMAX  =  250.000; ENMIN  =  200.000 eV                                      
   RCLOC  =    0.701    cutoff for local pot                                    
   LCOR   =        T    correct aug charges                                     
   LPAW   =        T    paw PP                                                  
   EAUG   =  400.000                                                            
   RMAX   =    1.123    core radius for proj-oper                               
   RAUG   =    1.200    factor for augmentation sphere                          
   RDEP   =    1.112    radius for radial grids                                 
   RDEPT  =    0.926    core radius for aug-charge                              
                                                                                
   Atomic configuration                                                         
    2 entries                                                                   
     n  l   j            E        occ.                                          
     1  0  0.50        -6.4927   1.0000                                         
     2  1  0.50        -3.4015   0.0000                                         
   Description                                                                  
     l       E           TYP  RCUT    TYP  RCUT                                 
     0     -6.4927494     23  1.100                                             
     0      6.8029130     23  1.100                                             
     1     -4.0817478     23  1.100                                             
  local pseudopotential read in
  atomic valenz-charges read in
  non local Contribution for L=           0  read in
    real space projection operators read in
  non local Contribution for L=           0  read in
    real space projection operators read in
  non local Contribution for L=           1  read in
    real space projection operators read in
    PAW grid and wavefunctions read in
 
   number of l-projection  operators is LMAX  =           3
   number of lm-projection operators is LMMAX =           5
 
 POTCAR:    PAW_PBE Pb_d 06Sep2000                
   VRHFIN =Pb:                                                                  
   LEXCH  = PE                                                                  
   EATOM  =  1661.6185 eV,  122.1255 Ry                                         
                                                                                
   TITEL  = PAW_PBE Pb_d 06Sep2000                                              
   LULTRA =        F    use ultrasoft PP ?                                      
   IUNSCR =        1    unscreen: 0-lin 1-nonlin 2-no                           
   RPACOR =    2.200    partial core radius                                     
   POMASS =  207.200; ZVAL   =   14.000    mass and valenz                      
   RCORE  =    2.500    outmost cutoff radius                                   
   RWIGS  =    3.260; RWIGS  =    1.725    wigner-seitz radius (au A)           
   ENMAX  =  237.835; ENMIN  =  178.376 eV                                      
   ICORE  =        3    local potential                                         
   LCOR   =        T    correct aug charges                                     
   LPAW   =        T    paw PP                                                  
   EAUG   =  391.914                                                            
   DEXC   =    0.000                                                            
   RMAX   =    2.565    core radius for proj-oper                               
   RAUG   =    1.300    factor for augmentation sphere                          
   RDEP   =    2.643    radius for radial grids                                 
   RDEPT  =    2.092    core radius for aug-charge                              
                                                                                
   Atomic configuration                                                         
   16 entries                                                                   
     n  l   j            E        occ.                                          
     1  0  0.50    -88091.8466   2.0000                                         
     2  0  0.50    -15753.4197   2.0000                                         
     2  1  1.50    -13508.1797   6.0000                                         
     3  0  0.50     -3781.7194   2.0000                                         
     3  1  1.50     -3138.2529   6.0000                                         
     3  2  2.50     -2483.2977  10.0000                                         
     4  0  0.50      -856.2895   2.0000                                         
     4  1  1.50      -645.4942   6.0000                                         
     4  2  2.50      -401.8768  10.0000                                         
     4  3  3.50      -132.9059  14.0000                                         
     5  0  0.50      -144.0950   2.0000                                         
     5  1  1.50       -85.7879   6.0000                                         
     5  2  2.50       -21.1769  10.0000                                         
     6  0  0.50       -12.0372   2.0000                                         
     6  1  1.50        -3.4971   2.0000                                         
     5  3  2.50        -2.7212   0.0000                                         
   Description                                                                  
     l       E           TYP  RCUT    TYP  RCUT                                 
     2    -21.1768523     23  2.500                                             
     2      1.3605826     23  2.500                                             
     0    -12.0371562     23  2.500                                             
     0     13.6058260     23  2.500                                             
     1     -3.4971339     23  2.500                                             
     1     13.6058260     23  2.500                                             
     3     -1.3605826      7  2.500                                             
  local pseudopotential read in
  partial core-charges read in
  partial kinetic energy density read in
  atomic valenz-charges read in
  non local Contribution for L=           2  read in
    real space projection operators read in
  non local Contribution for L=           2  read in
    real space projection operators read in
  non local Contribution for L=           0  read in
    real space projection operators read in
  non local Contribution for L=           0  read in
    real space projection operators read in
  non local Contribution for L=           1  read in
    real space projection operators read in
  non local Contribution for L=           1  read in
    real space projection operators read in
    PAW grid and wavefunctions read in
 
   number of l-projection  operators is LMAX  =           6
   number of lm-projection operators is LMMAX =          18
 
 POTCAR:    PAW_PBE I 08Apr2002                   
   VRHFIN =I : s2p5                                                             
   LEXCH  = PE                                                                  
   EATOM  =   315.8678 eV,   23.2156 Ry                                         
                                                                                
   TITEL  = PAW_PBE I 08Apr2002                                                 
   LULTRA =        F    use ultrasoft PP ?                                      
   IUNSCR =        1    unscreen: 0-lin 1-nonlin 2-no                           
   RPACOR =    2.200    partial core radius                                     
   POMASS =  126.904; ZVAL   =    7.000    mass and valenz                      
   RCORE  =    2.300    outmost cutoff radius                                   
   RWIGS  =    2.810; RWIGS  =    1.487    wigner-seitz radius (au A)           
   ENMAX  =  175.647; ENMIN  =  131.735 eV                                      
   ICORE  =        3    local potential                                         
   LCOR   =        T    correct aug charges                                     
   LPAW   =        T    paw PP                                                  
   EAUG   =  370.139                                                            
   DEXC   =    0.000                                                            
   RMAX   =    2.359    core radius for proj-oper                               
   RAUG   =    1.300    factor for augmentation sphere                          
   RDEP   =    2.392    radius for radial grids                                 
   RDEPT  =    2.170    core radius for aug-charge                              
                                                                                
   Atomic configuration                                                         
   13 entries                                                                   
     n  l   j            E        occ.                                          
     1  0  0.50    -32976.3739   2.0000                                         
     2  0  0.50     -5094.5933   2.0000                                         
     2  1  1.50     -4572.0131   6.0000                                         
     3  0  0.50     -1028.2813   2.0000                                         
     3  1  1.50      -859.0250   6.0000                                         
     3  2  2.50      -605.7620  10.0000                                         
     4  0  0.50      -180.5540   2.0000                                         
     4  1  1.50      -127.5306   6.0000                                         
     4  2  2.50       -50.2720  10.0000                                         
     5  0  0.50       -17.4058   2.0000                                         
     5  1  0.50        -7.0851   5.0000                                         
     5  2  1.50        -7.0750   0.0000                                         
     4  3  2.50        -7.0750   0.0000                                         
   Description                                                                  
     l       E           TYP  RCUT    TYP  RCUT                                 
     0    -17.4058016     23  2.300                                             
     0    -18.7663842     23  2.300                                             
     1     -7.0850686     23  2.300                                             
     1     -4.2150896     23  2.300                                             
     2     -7.0750295     23  2.300                                             
     3     -1.3605826     23  2.300                                             
  local pseudopotential read in
  partial core-charges read in
  partial kinetic energy density read in
  atomic valenz-charges read in
  non local Contribution for L=           0  read in
    real space projection operators read in
  non local Contribution for L=           0  read in
    real space projection operators read in
  non local Contribution for L=           1  read in
    real space projection operators read in
  non local Contribution for L=           1  read in
    real space projection operators read in
  non local Contribution for L=           2  read in
    real space projection operators read in
    PAW grid and wavefunctions read in
 
   number of l-projection  operators is LMAX  =           5
   number of lm-projection operators is LMMAX =          13
 
  PAW_PBE C 08Apr2002                   :
 energy of atom  1       EATOM= -147.1560
 kinetic energy error for atom=    0.0076 (will be added to EATOM!!)
  PAW_PBE N 08Apr2002                   :
 energy of atom  2       EATOM= -264.5486
 kinetic energy error for atom=    0.0138 (will be added to EATOM!!)
  PAW_PBE H 15Jun2001                   :
 energy of atom  3       EATOM=  -12.4884
 kinetic energy error for atom=    0.0020 (will be added to EATOM!!)
  PAW_PBE Pb_d 06Sep2000                :
 energy of atom  4       EATOM=-1661.6185
 kinetic energy error for atom=    0.0047 (will be added to EATOM!!)
  PAW_PBE I 08Apr2002                   :
 energy of atom  5       EATOM= -315.8678
 kinetic energy error for atom=    0.0009 (will be added to EATOM!!)
 
 
 POSCAR: MA-Pb-I (Github)                        
  positions in direct lattice
  No initial velocities read in
 exchange correlation table for  LEXCH =        8
   RHO(1)=    0.500       N(1)  =     2000
   RHO(2)=  100.500       N(2)  =     4000
 


--------------------------------------------------------------------------------------------------------


 ion  position               nearest neighbor table
   1  0.903  1.000  0.996-   3 1.10   5 1.10   4 1.10   2 1.48
   2  0.137  1.000  0.025-   6 1.04   7 1.04   8 1.05   1 1.48
   3  0.865  1.000  0.826-   1 1.10
   4  0.838  0.144  0.072-   1 1.10
   5  0.838  0.857  0.072-   1 1.10
   6  0.208  0.134  0.958-   2 1.04
   7  0.207  0.865  0.958-   2 1.04
   8  0.182  0.000  0.185-   2 1.05
   9  0.476  0.500  0.476-  12 3.07  10 3.15  11 3.15  11 3.15  10 3.18  12 3.23
  10  0.427  0.500  0.973-   9 3.15   9 3.18
  11  0.436  0.000  0.507-   9 3.15   9 3.15
  12  0.963  0.500  0.448-   9 3.07   9 3.23
 

IMPORTANT INFORMATION: All symmetrisations will be switched off!
NOSYMM: (Re-)initialisation of all symmetry stuff for point group C_1.

 
 
 KPOINTS: Automatically generated mesh            
  k-points in reciprocal lattice
Space group operators:
 irot       det(A)        alpha          n_x          n_y          n_z        tau_x        tau_y        tau_z
    1     1.000000     0.000000     1.000000     0.000000     0.000000     0.000000     0.000000     0.000000

 ----------------------------------------------------------------------------- 
|                                                                             |
|           W    W    AA    RRRRR   N    N  II  N    N   GGGG   !!!           |
|           W    W   A  A   R    R  NN   N  II  NN   N  G    G  !!!           |
|           W    W  A    A  R    R  N N  N  II  N N  N  G       !!!           |
|           W WW W  AAAAAA  RRRRR   N  N N  II  N  N N  G  GGG   !            |
|           WW  WW  A    A  R   R   N   NN  II  N   NN  G    G                |
|           W    W  A    A  R    R  N    N  II  N    N   GGGG   !!!           |
|                                                                             |
|      Your generating k-point grid is not commensurate to the symmetry       |
|      of the lattice.  This can cause   slow convergence with respect        |
|      to k-points for HF type calculations                                   |
|      suggested SOLUTIONS:                                                   |
|       ) if not already the case, use automatic k-point generation           |
|       ) shift your grid to Gamma (G) (e.g. required for hex or fcc lattice) |
|                                                                             |
 ----------------------------------------------------------------------------- 

 
 Subroutine IBZKPT_HF returns following result:
 ==============================================
 
 Found    346 k-points in 1st BZ
 the following    346 k-points will be used (e.g. in the exchange kernel)
 Following reciprocal coordinates:   # in IRBZ
  0.000000  0.000000  0.000000    0.00462963   1 t-inv F
  0.166667  0.000000  0.000000    0.00462963   2 t-inv F
  0.333333  0.000000  0.000000    0.00462963   3 t-inv F
  0.500000  0.000000  0.000000    0.00462963   4 t-inv F
 -0.333333  0.000000  0.000000    0.00462963   5 t-inv F
 -0.166667  0.000000  0.000000    0.00462963   6 t-inv F
  0.000000  0.166667  0.000000    0.00462963   7 t-inv F
  0.166667  0.166667  0.000000    0.00462963   8 t-inv F
  0.333333  0.166667  0.000000    0.00462963   9 t-inv F
  0.500000  0.166667  0.000000    0.00462963  10 t-inv F
 -0.333333  0.166667  0.000000    0.00462963  11 t-inv F
 -0.166667  0.166667  0.000000    0.00462963  12 t-inv F
  0.000000  0.333333  0.000000    0.00462963  13 t-inv F
  0.166667  0.333333  0.000000    0.00462963  14 t-inv F
  0.333333  0.333333  0.000000    0.00462963  15 t-inv F
  0.500000  0.333333  0.000000    0.00462963  16 t-inv F
 -0.333333  0.333333  0.000000    0.00462963  17 t-inv F
 -0.166667  0.333333  0.000000    0.00462963  18 t-inv F
  0.000000  0.500000  0.000000    0.00462963  19 t-inv F
  0.166667  0.500000  0.000000    0.00462963  20 t-inv F
  0.333333  0.500000  0.000000    0.00462963  21 t-inv F
  0.500000  0.500000  0.000000    0.00462963  22 t-inv F
 -0.333333  0.500000  0.000000    0.00462963  23 t-inv F
 -0.166667  0.500000  0.000000    0.00462963  24 t-inv F
  0.000000 -0.333333  0.000000    0.00462963  25 t-inv F
  0.166667 -0.333333  0.000000    0.00462963  26 t-inv F
  0.333333 -0.333333  0.000000    0.00462963  27 t-inv F
  0.500000 -0.333333  0.000000    0.00462963  28 t-inv F
 -0.333333 -0.333333  0.000000    0.00462963  29 t-inv F
 -0.166667 -0.333333  0.000000    0.00462963  30 t-inv F
  0.000000 -0.166667  0.000000    0.00462963  31 t-inv F
  0.166667 -0.166667  0.000000    0.00462963  32 t-inv F
  0.333333 -0.166667  0.000000    0.00462963  33 t-inv F
  0.500000 -0.166667  0.000000    0.00462963  34 t-inv F
 -0.333333 -0.166667  0.000000    0.00462963  35 t-inv F
 -0.166667 -0.166667  0.000000    0.00462963  36 t-inv F
  0.000000  0.000000  0.166667    0.00462963  37 t-inv F
  0.166667  0.000000  0.166667    0.00462963  38 t-inv F
  0.333333  0.000000  0.166667    0.00462963  39 t-inv F
  0.500000  0.000000  0.166667    0.00462963  40 t-inv F
 -0.333333  0.000000  0.166667    0.00462963  41 t-inv F
 -0.166667  0.000000  0.166667    0.00462963  42 t-inv F
  0.000000  0.166667  0.166667    0.00462963  43 t-inv F
  0.166667  0.166667  0.166667    0.00462963  44 t-inv F
  0.333333  0.166667  0.166667    0.00462963  45 t-inv F
  0.500000  0.166667  0.166667    0.00462963  46 t-inv F
 -0.333333  0.166667  0.166667    0.00462963  47 t-inv F
 -0.166667  0.166667  0.166667    0.00462963  48 t-inv F
  0.000000  0.333333  0.166667    0.00462963  49 t-inv F
  0.166667  0.333333  0.166667    0.00462963  50 t-inv F
  0.333333  0.333333  0.166667    0.00462963  51 t-inv F
  0.500000  0.333333  0.166667    0.00462963  52 t-inv F
 -0.333333  0.333333  0.166667    0.00462963  53 t-inv F
 -0.166667  0.333333  0.166667    0.00462963  54 t-inv F
  0.000000  0.500000  0.166667    0.00462963  55 t-inv F
  0.166667  0.500000  0.166667    0.00462963  56 t-inv F
  0.333333  0.500000  0.166667    0.00462963  57 t-inv F
  0.500000  0.500000  0.166667    0.00462963  58 t-inv F
 -0.333333  0.500000  0.166667    0.00462963  59 t-inv F
 -0.166667  0.500000  0.166667    0.00462963  60 t-inv F
  0.000000 -0.333333  0.166667    0.00462963  61 t-inv F
  0.166667 -0.333333  0.166667    0.00462963  62 t-inv F
  0.333333 -0.333333  0.166667    0.00462963  63 t-inv F
  0.500000 -0.333333  0.166667    0.00462963  64 t-inv F
 -0.333333 -0.333333  0.166667    0.00462963  65 t-inv F
 -0.166667 -0.333333  0.166667    0.00462963  66 t-inv F
  0.000000 -0.166667  0.166667    0.00462963  67 t-inv F
  0.166667 -0.166667  0.166667    0.00462963  68 t-inv F
  0.333333 -0.166667  0.166667    0.00462963  69 t-inv F
  0.500000 -0.166667  0.166667    0.00462963  70 t-inv F
 -0.333333 -0.166667  0.166667    0.00462963  71 t-inv F
 -0.166667 -0.166667  0.166667    0.00462963  72 t-inv F
  0.000000  0.000000  0.333333    0.00462963  73 t-inv F
  0.166667  0.000000  0.333333    0.00462963  74 t-inv F
  0.333333  0.000000  0.333333    0.00462963  75 t-inv F
  0.500000  0.000000  0.333333    0.00462963  76 t-inv F
 -0.333333  0.000000  0.333333    0.00462963  77 t-inv F
 -0.166667  0.000000  0.333333    0.00462963  78 t-inv F
  0.000000  0.166667  0.333333    0.00462963  79 t-inv F
  0.166667  0.166667  0.333333    0.00462963  80 t-inv F
  0.333333  0.166667  0.333333    0.00462963  81 t-inv F
  0.500000  0.166667  0.333333    0.00462963  82 t-inv F
 -0.333333  0.166667  0.333333    0.00462963  83 t-inv F
 -0.166667  0.166667  0.333333    0.00462963  84 t-inv F
  0.000000  0.333333  0.333333    0.00462963  85 t-inv F
  0.166667  0.333333  0.333333    0.00462963  86 t-inv F
  0.333333  0.333333  0.333333    0.00462963  87 t-inv F
  0.500000  0.333333  0.333333    0.00462963  88 t-inv F
 -0.333333  0.333333  0.333333    0.00462963  89 t-inv F
 -0.166667  0.333333  0.333333    0.00462963  90 t-inv F
  0.000000  0.500000  0.333333    0.00462963  91 t-inv F
  0.166667  0.500000  0.333333    0.00462963  92 t-inv F
  0.333333  0.500000  0.333333    0.00462963  93 t-inv F
  0.500000  0.500000  0.333333    0.00462963  94 t-inv F
 -0.333333  0.500000  0.333333    0.00462963  95 t-inv F
 -0.166667  0.500000  0.333333    0.00462963  96 t-inv F
  0.000000 -0.333333  0.333333    0.00462963  97 t-inv F
  0.166667 -0.333333  0.333333    0.00462963  98 t-inv F
  0.333333 -0.333333  0.333333    0.00462963  99 t-inv F
  0.500000 -0.333333  0.333333    0.00462963 100 t-inv F
 -0.333333 -0.333333  0.333333    0.00462963 101 t-inv F
 -0.166667 -0.333333  0.333333    0.00462963 102 t-inv F
  0.000000 -0.166667  0.333333    0.00462963 103 t-inv F
  0.166667 -0.166667  0.333333    0.00462963 104 t-inv F
  0.333333 -0.166667  0.333333    0.00462963 105 t-inv F
  0.500000 -0.166667  0.333333    0.00462963 106 t-inv F
 -0.333333 -0.166667  0.333333    0.00462963 107 t-inv F
 -0.166667 -0.166667  0.333333    0.00462963 108 t-inv F
  0.000000  0.000000  0.500000    0.00462963 109 t-inv F
  0.166667  0.000000  0.500000    0.00462963 110 t-inv F
  0.333333  0.000000  0.500000    0.00462963 111 t-inv F
  0.500000  0.000000  0.500000    0.00462963 112 t-inv F
 -0.333333  0.000000  0.500000    0.00462963 113 t-inv F
 -0.166667  0.000000  0.500000    0.00462963 114 t-inv F
  0.000000  0.166667  0.500000    0.00462963 115 t-inv F
  0.166667  0.166667  0.500000    0.00462963 116 t-inv F
  0.333333  0.166667  0.500000    0.00462963 117 t-inv F
  0.500000  0.166667  0.500000    0.00462963 118 t-inv F
 -0.333333  0.166667  0.500000    0.00462963 119 t-inv F
 -0.166667  0.166667  0.500000    0.00462963 120 t-inv F
  0.000000  0.333333  0.500000    0.00462963 121 t-inv F
  0.166667  0.333333  0.500000    0.00462963 122 t-inv F
  0.333333  0.333333  0.500000    0.00462963 123 t-inv F
  0.500000  0.333333  0.500000    0.00462963 124 t-inv F
 -0.333333  0.333333  0.500000    0.00462963 125 t-inv F
 -0.166667  0.333333  0.500000    0.00462963 126 t-inv F
  0.000000  0.500000  0.500000    0.00462963 127 t-inv F
  0.166667  0.500000  0.500000    0.00462963 128 t-inv F
  0.333333  0.500000  0.500000    0.00462963 129 t-inv F
  0.500000  0.500000  0.500000    0.00462963 130 t-inv F
 -0.333333  0.500000  0.500000    0.00462963 131 t-inv F
 -0.166667  0.500000  0.500000    0.00462963 132 t-inv F
  0.000000 -0.333333  0.500000    0.00462963 133 t-inv F
  0.166667 -0.333333  0.500000    0.00462963 134 t-inv F
  0.333333 -0.333333  0.500000    0.00462963 135 t-inv F
  0.500000 -0.333333  0.500000    0.00462963 136 t-inv F
 -0.333333 -0.333333  0.500000    0.00462963 137 t-inv F
 -0.166667 -0.333333  0.500000    0.00462963 138 t-inv F
  0.000000 -0.166667  0.500000    0.00462963 139 t-inv F
  0.166667 -0.166667  0.500000    0.00462963 140 t-inv F
  0.333333 -0.166667  0.500000    0.00462963 141 t-inv F
  0.500000 -0.166667  0.500000    0.00462963 142 t-inv F
 -0.333333 -0.166667  0.500000    0.00462963 143 t-inv F
 -0.166667 -0.166667  0.500000    0.00462963 144 t-inv F
  0.000000  0.000000 -0.333333    0.00462963 145 t-inv F
  0.166667  0.000000 -0.333333    0.00462963 146 t-inv F
  0.333333  0.000000 -0.333333    0.00462963 147 t-inv F
  0.500000  0.000000 -0.333333    0.00462963 148 t-inv F
 -0.333333  0.000000 -0.333333    0.00462963 149 t-inv F
 -0.166667  0.000000 -0.333333    0.00462963 150 t-inv F
  0.000000  0.166667 -0.333333    0.00462963 151 t-inv F
  0.166667  0.166667 -0.333333    0.00462963 152 t-inv F
  0.333333  0.166667 -0.333333    0.00462963 153 t-inv F
  0.500000  0.166667 -0.333333    0.00462963 154 t-inv F
 -0.333333  0.166667 -0.333333    0.00462963 155 t-inv F
 -0.166667  0.166667 -0.333333    0.00462963 156 t-inv F
  0.000000  0.333333 -0.333333    0.00462963 157 t-inv F
  0.166667  0.333333 -0.333333    0.00462963 158 t-inv F
  0.333333  0.333333 -0.333333    0.00462963 159 t-inv F
  0.500000  0.333333 -0.333333    0.00462963 160 t-inv F
 -0.333333  0.333333 -0.333333    0.00462963 161 t-inv F
 -0.166667  0.333333 -0.333333    0.00462963 162 t-inv F
  0.000000  0.500000 -0.333333    0.00462963 163 t-inv F
  0.166667  0.500000 -0.333333    0.00462963 164 t-inv F
  0.333333  0.500000 -0.333333    0.00462963 165 t-inv F
  0.500000  0.500000 -0.333333    0.00462963 166 t-inv F
 -0.333333  0.500000 -0.333333    0.00462963 167 t-inv F
 -0.166667  0.500000 -0.333333    0.00462963 168 t-inv F
  0.000000 -0.333333 -0.333333    0.00462963 169 t-inv F
  0.166667 -0.333333 -0.333333    0.00462963 170 t-inv F
  0.333333 -0.333333 -0.333333    0.00462963 171 t-inv F
  0.500000 -0.333333 -0.333333    0.00462963 172 t-inv F
 -0.333333 -0.333333 -0.333333    0.00462963 173 t-inv F
 -0.166667 -0.333333 -0.333333    0.00462963 174 t-inv F
  0.000000 -0.166667 -0.333333    0.00462963 175 t-inv F
  0.166667 -0.166667 -0.333333    0.00462963 176 t-inv F
  0.333333 -0.166667 -0.333333    0.00462963 177 t-inv F
  0.500000 -0.166667 -0.333333    0.00462963 178 t-inv F
 -0.333333 -0.166667 -0.333333    0.00462963 179 t-inv F
 -0.166667 -0.166667 -0.333333    0.00462963 180 t-inv F
  0.000000  0.000000 -0.166667    0.00462963 181 t-inv F
  0.166667  0.000000 -0.166667    0.00462963 182 t-inv F
  0.333333  0.000000 -0.166667    0.00462963 183 t-inv F
  0.500000  0.000000 -0.166667    0.00462963 184 t-inv F
 -0.333333  0.000000 -0.166667    0.00462963 185 t-inv F
 -0.166667  0.000000 -0.166667    0.00462963 186 t-inv F
  0.000000  0.166667 -0.166667    0.00462963 187 t-inv F
  0.166667  0.166667 -0.166667    0.00462963 188 t-inv F
  0.333333  0.166667 -0.166667    0.00462963 189 t-inv F
  0.500000  0.166667 -0.166667    0.00462963 190 t-inv F
 -0.333333  0.166667 -0.166667    0.00462963 191 t-inv F
 -0.166667  0.166667 -0.166667    0.00462963 192 t-inv F
  0.000000  0.333333 -0.166667    0.00462963 193 t-inv F
  0.166667  0.333333 -0.166667    0.00462963 194 t-inv F
  0.333333  0.333333 -0.166667    0.00462963 195 t-inv F
  0.500000  0.333333 -0.166667    0.00462963 196 t-inv F
 -0.333333  0.333333 -0.166667    0.00462963 197 t-inv F
 -0.166667  0.333333 -0.166667    0.00462963 198 t-inv F
  0.000000  0.500000 -0.166667    0.00462963 199 t-inv F
  0.166667  0.500000 -0.166667    0.00462963 200 t-inv F
  0.333333  0.500000 -0.166667    0.00462963 201 t-inv F
  0.500000  0.500000 -0.166667    0.00462963 202 t-inv F
 -0.333333  0.500000 -0.166667    0.00462963 203 t-inv F
 -0.166667  0.500000 -0.166667    0.00462963 204 t-inv F
  0.000000 -0.333333 -0.166667    0.00462963 205 t-inv F
  0.166667 -0.333333 -0.166667    0.00462963 206 t-inv F
  0.333333 -0.333333 -0.166667    0.00462963 207 t-inv F
  0.500000 -0.333333 -0.166667    0.00462963 208 t-inv F
 -0.333333 -0.333333 -0.166667    0.00462963 209 t-inv F
 -0.166667 -0.333333 -0.166667    0.00462963 210 t-inv F
  0.000000 -0.166667 -0.166667    0.00462963 211 t-inv F
  0.166667 -0.166667 -0.166667    0.00462963 212 t-inv F
  0.333333 -0.166667 -0.166667    0.00462963 213 t-inv F
  0.500000 -0.166667 -0.166667    0.00462963 214 t-inv F
 -0.333333 -0.166667 -0.166667    0.00462963 215 t-inv F
 -0.166667 -0.166667 -0.166667    0.00462963 216 t-inv F
  0.000000  0.000000  0.000000    0.00000000 217 t-inv F
  0.011364  0.011364  0.011364    0.00000000 218 t-inv F
  0.022727  0.022727  0.022727    0.00000000 219 t-inv F
  0.034091  0.034091  0.034091    0.00000000 220 t-inv F
  0.045455  0.045455  0.045455    0.00000000 221 t-inv F
  0.056818  0.056818  0.056818    0.00000000 222 t-inv F
  0.068182  0.068182  0.068182    0.00000000 223 t-inv F
  0.079545  0.079545  0.079545    0.00000000 224 t-inv F
  0.090909  0.090909  0.090909    0.00000000 225 t-inv F
  0.102273  0.102273  0.102273    0.00000000 226 t-inv F
  0.113636  0.113636  0.113636    0.00000000 227 t-inv F
  0.125000  0.125000  0.125000    0.00000000 228 t-inv F
  0.136364  0.136364  0.136364    0.00000000 229 t-inv F
  0.147727  0.147727  0.147727    0.00000000 230 t-inv F
  0.159091  0.159091  0.159091    0.00000000 231 t-inv F
  0.170455  0.170455  0.170455    0.00000000 232 t-inv F
  0.181818  0.181818  0.181818    0.00000000 233 t-inv F
  0.193182  0.193182  0.193182    0.00000000 234 t-inv F
  0.204545  0.204545  0.204545    0.00000000 235 t-inv F
  0.215909  0.215909  0.215909    0.00000000 236 t-inv F
  0.227273  0.227273  0.227273    0.00000000 237 t-inv F
  0.238636  0.238636  0.238636    0.00000000 238 t-inv F
  0.250000  0.250000  0.250000    0.00000000 239 t-inv F
  0.261364  0.261364  0.261364    0.00000000 240 t-inv F
  0.272727  0.272727  0.272727    0.00000000 241 t-inv F
  0.284091  0.284091  0.284091    0.00000000 242 t-inv F
  0.295455  0.295455  0.295455    0.00000000 243 t-inv F
  0.306818  0.306818  0.306818    0.00000000 244 t-inv F
  0.318182  0.318182  0.318182    0.00000000 245 t-inv F
  0.329545  0.329545  0.329545    0.00000000 246 t-inv F
  0.340909  0.340909  0.340909    0.00000000 247 t-inv F
  0.352273  0.352273  0.352273    0.00000000 248 t-inv F
  0.363636  0.363636  0.363636    0.00000000 249 t-inv F
  0.375000  0.375000  0.375000    0.00000000 250 t-inv F
  0.386364  0.386364  0.386364    0.00000000 251 t-inv F
  0.397727  0.397727  0.397727    0.00000000 252 t-inv F
  0.409091  0.409091  0.409091    0.00000000 253 t-inv F
  0.420455  0.420455  0.420455    0.00000000 254 t-inv F
  0.431818  0.431818  0.431818    0.00000000 255 t-inv F
  0.443182  0.443182  0.443182    0.00000000 256 t-inv F
  0.454545  0.454545  0.454545    0.00000000 257 t-inv F
  0.465909  0.465909  0.465909    0.00000000 258 t-inv F
  0.477273  0.477273  0.477273    0.00000000 259 t-inv F
  0.488636  0.488636  0.488636    0.00000000 260 t-inv F
  0.500000  0.500000  0.500000    0.00000000 261 t-inv F
  0.485714  0.500000  0.485714    0.00000000 262 t-inv F
  0.471429  0.500000  0.471429    0.00000000 263 t-inv F
  0.457143  0.500000  0.457143    0.00000000 264 t-inv F
  0.442857  0.500000  0.442857    0.00000000 265 t-inv F
  0.428571  0.500000  0.428571    0.00000000 266 t-inv F
  0.414286  0.500000  0.414286    0.00000000 267 t-inv F
  0.400000  0.500000  0.400000    0.00000000 268 t-inv F
  0.385714  0.500000  0.385714    0.00000000 269 t-inv F
  0.371429  0.500000  0.371429    0.00000000 270 t-inv F
  0.357143  0.500000  0.357143    0.00000000 271 t-inv F
  0.342857  0.500000  0.342857    0.00000000 272 t-inv F
  0.328571  0.500000  0.328571    0.00000000 273 t-inv F
  0.314286  0.500000  0.314286    0.00000000 274 t-inv F
  0.300000  0.500000  0.300000    0.00000000 275 t-inv F
  0.285714  0.500000  0.285714    0.00000000 276 t-inv F
  0.271429  0.500000  0.271429    0.00000000 277 t-inv F
  0.257143  0.500000  0.257143    0.00000000 278 t-inv F
  0.242857  0.500000  0.242857    0.00000000 279 t-inv F
  0.228571  0.500000  0.228571    0.00000000 280 t-inv F
  0.214286  0.500000  0.214286    0.00000000 281 t-inv F
  0.200000  0.500000  0.200000    0.00000000 282 t-inv F
  0.185714  0.500000  0.185714    0.00000000 283 t-inv F
  0.171429  0.500000  0.171429    0.00000000 284 t-inv F
  0.157143  0.500000  0.157143    0.00000000 285 t-inv F
  0.142857  0.500000  0.142857    0.00000000 286 t-inv F
  0.128571  0.500000  0.128571    0.00000000 287 t-inv F
  0.114286  0.500000  0.114286    0.00000000 288 t-inv F
  0.100000  0.500000  0.100000    0.00000000 289 t-inv F
  0.085714  0.500000  0.085714    0.00000000 290 t-inv F
  0.071429  0.500000  0.071429    0.00000000 291 t-inv F
  0.057143  0.500000  0.057143    0.00000000 292 t-inv F
  0.042857  0.500000  0.042857    0.00000000 293 t-inv F
  0.028571  0.500000  0.028571    0.00000000 294 t-inv F
  0.014286  0.500000  0.014286    0.00000000 295 t-inv F
  0.000000  0.500000  0.000000    0.00000000 296 t-inv F
  0.020000  0.500000  0.000000    0.00000000 297 t-inv F
  0.040000  0.500000  0.000000    0.00000000 298 t-inv F
  0.060000  0.500000  0.000000    0.00000000 299 t-inv F
  0.080000  0.500000  0.000000    0.00000000 300 t-inv F
  0.100000  0.500000  0.000000    0.00000000 301 t-inv F
  0.120000  0.500000  0.000000    0.00000000 302 t-inv F
  0.140000  0.500000  0.000000    0.00000000 303 t-inv F
  0.160000  0.500000  0.000000    0.00000000 304 t-inv F
  0.180000  0.500000  0.000000    0.00000000 305 t-inv F
  0.200000  0.500000  0.000000    0.00000000 306 t-inv F
  0.220000  0.500000  0.000000    0.00000000 307 t-inv F
  0.240000  0.500000  0.000000    0.00000000 308 t-inv F
  0.260000  0.500000  0.000000    0.00000000 309 t-inv F
  0.280000  0.500000  0.000000    0.00000000 310 t-inv F
  0.300000  0.500000  0.000000    0.00000000 311 t-inv F
  0.320000  0.500000  0.000000    0.00000000 312 t-inv F
  0.340000  0.500000  0.000000    0.00000000 313 t-inv F
  0.360000  0.500000  0.000000    0.00000000 314 t-inv F
  0.380000  0.500000  0.000000    0.00000000 315 t-inv F
  0.400000  0.500000  0.000000    0.00000000 316 t-inv F
  0.420000  0.500000  0.000000    0.00000000 317 t-inv F
  0.440000  0.500000  0.000000    0.00000000 318 t-inv F
  0.460000  0.500000  0.000000    0.00000000 319 t-inv F
  0.480000  0.500000  0.000000    0.00000000 320 t-inv F
  0.500000  0.500000  0.000000    0.00000000 321 t-inv F
  0.500000  0.500000  0.020000    0.00000000 322 t-inv F
  0.500000  0.500000  0.040000    0.00000000 323 t-inv F
  0.500000  0.500000  0.060000    0.00000000 324 t-inv F
  0.500000  0.500000  0.080000    0.00000000 325 t-inv F
  0.500000  0.500000  0.100000    0.00000000 326 t-inv F
  0.500000  0.500000  0.120000    0.00000000 327 t-inv F
  0.500000  0.500000  0.140000    0.00000000 328 t-inv F
  0.500000  0.500000  0.160000    0.00000000 329 t-inv F
  0.500000  0.500000  0.180000    0.00000000 330 t-inv F
  0.500000  0.500000  0.200000    0.00000000 331 t-inv F
  0.500000  0.500000  0.220000    0.00000000 332 t-inv F
  0.500000  0.500000  0.240000    0.00000000 333 t-inv F
  0.500000  0.500000  0.260000    0.00000000 334 t-inv F
  0.500000  0.500000  0.280000    0.00000000 335 t-inv F
  0.500000  0.500000  0.300000    0.00000000 336 t-inv F
  0.500000  0.500000  0.320000    0.00000000 337 t-inv F
  0.500000  0.500000  0.340000    0.00000000 338 t-inv F
  0.500000  0.500000  0.360000    0.00000000 339 t-inv F
  0.500000  0.500000  0.380000    0.00000000 340 t-inv F
  0.500000  0.500000  0.400000    0.00000000 341 t-inv F
  0.500000  0.500000  0.420000    0.00000000 342 t-inv F
  0.500000  0.500000  0.440000    0.00000000 343 t-inv F
  0.500000  0.500000  0.460000    0.00000000 344 t-inv F
  0.500000  0.500000  0.480000    0.00000000 345 t-inv F
  0.500000  0.500000  0.500000    0.00000000 346 t-inv F


--------------------------------------------------------------------------------------------------------




 Dimension of arrays:
   k-points           NKPTS =    346   k-points in BZ     NKDIM =    346   number of bands    NBANDS=     96
   number of dos      NEDOS =    301   number of ions     NIONS =     12
   non local maximal  LDIM  =      6   non local SUM 2l+1 LMDIM =     18
   total plane-waves  NPLWV = 110592
   max r-space proj   IRMAX =      1   max aug-charges    IRDMAX=  25940
   dimension x,y,z NGX =    48 NGY =   48 NGZ =   48
   dimension x,y,z NGXF=    96 NGYF=   96 NGZF=   96
   support grid    NGXF=    96 NGYF=   96 NGZF=   96
   ions per type =               1   1   6   1   3
 NGX,Y,Z   is equivalent  to a cutoff of  12.69, 12.72, 12.67 a.u.
 NGXF,Y,Z  is equivalent  to a cutoff of  25.37, 25.44, 25.34 a.u.


 I would recommend the setting:
   dimension x,y,z NGX =    46 NGY =   46 NGZ =   46
 SYSTEM =  Hybrid self-consistent (band structure) 
 POSCAR =  MA-Pb-I (Github)                        

 Startparameter for this run:
   NWRITE =      2    write-flag & timer
   PREC   = accura    normal or accurate (medium, high low for compatibility)
   ISTART =      0    job   : 0-new  1-cont  2-samecut
   ICHARG =      2    charge: 1-file 2-atom 10-const
   ISPIN  =      1    spin polarized calculation?
   LNONCOLLINEAR =      T non collinear calculations
   LSORBIT =      T    spin-orbit coupling
   INIWAV =      1    electr: 0-lowe 1-rand  2-diag
   LASPH  =      F    aspherical Exc in radial PAW
   METAGGA=      F    non-selfconsistent MetaGGA calc.

 Electronic Relaxation 1
   ENCUT  =  500.0 eV  36.75 Ry    6.06 a.u.  11.47 11.44 11.48*2*pi/ulx,y,z
   ENINI  =  500.0     initial cutoff
   ENAUG  =  644.9 eV  augmentation charge cutoff
   NELM   =     60;   NELMIN=  5; NELMDL=  0     # of ELM steps 
   EDIFF  = 0.1E-05   stopping-criterion for ELM
   LREAL  =      F    real-space projection
   NLSPLINE    = F    spline interpolate recip. space projectors
   LCOMPAT=      F    compatible to vasp.4.4
   GGA_COMPAT  = T    GGA compatible to vasp.4.4-vasp.4.6
   LMAXPAW     = -100 max onsite density
   LMAXMIX     =    2 max onsite mixed and CHGCAR
   VOSKOWN=      0    Vosko Wilk Nusair interpolation
   ROPT   =    0.00000   0.00000   0.00000   0.00000
   ROPT   =    0.00000
 Ionic relaxation
   EDIFFG = -.5E-02   stopping-criterion for IOM
   NSW    =      0    number of steps for IOM
   NBLOCK =      1;   KBLOCK =      1    inner block; outer block 
   IBRION =     -1    ionic relax: 0-MD 1-quasi-New 2-CG
   NFREE  =      0    steps in history (QN), initial steepest desc. (CG)
   ISIF   =      3    stress and relaxation
   IWAVPR =     10    prediction:  0-non 1-charg 2-wave 3-comb
   ISYM   =      0    0-nonsym 1-usesym 2-fastsym
   LCORR  =      T    Harris-Foulkes like correction to forces

   POTIM  = 0.5000    time-step for ionic-motion
   TEIN   =    0.0    initial temperature
   TEBEG  =    0.0;   TEEND  =   0.0 temperature during run
   SMASS  =  -3.00    Nose mass-parameter (am)
   estimated Nose-frequenzy (Omega)   =  0.10E-29 period in steps =****** mass=  -0.904E-27a.u.
   SCALEE = 1.0000    scale energy and forces
   NPACO  =    256;   APACO  = 16.0  distance and # of slots for P.C.
   PSTRESS=    0.0 pullay stress

  Mass of Ions in am
   POMASS =  12.01 14.00  1.00207.20126.90
  Ionic Valenz
   ZVAL   =   4.00  5.00  1.00 14.00  7.00
  Atomic Wigner-Seitz radii
   RWIGS  =  -1.00 -1.00 -1.00 -1.00 -1.00
  virtual crystal weights 
   VCA    =   1.00  1.00  1.00  1.00  1.00
   NELECT =      50.0000    total number of electrons
   NUPDOWN=      -1.0000    fix difference up-down

 DOS related values:
   EMIN   =  10.00;   EMAX   =-10.00  energy-range for DOS
   EFERMI =   0.00
   ISMEAR =     0;   SIGMA  =   0.01  broadening in eV -4-tet -1-fermi 0-gaus

 Electronic relaxation 2 (details)
   IALGO  =     58    algorithm
   LDIAG  =      T    sub-space diagonalisation (order eigenvalues)
   LSUBROT=      F    optimize rotation matrix (better conditioning)
   TURBO    =      0    0=normal 1=particle mesh
   IRESTART =      0    0=no restart 2=restart with 2 vectors
   NREBOOT  =      0    no. of reboots
   NMIN     =      0    reboot dimension
   EREF     =   0.00    reference energy to select bands
   IMIX   =      4    mixing-type and parameters
     AMIX     =   0.40;   BMIX     =  1.00
     AMIX_MAG =   1.60;   BMIX_MAG =  1.00
     AMIN     =   0.10
     WC   =   100.;   INIMIX=   1;  MIXPRE=   1;  MAXMIX= -45

 Intra band minimization:
   WEIMIN = 0.0000     energy-eigenvalue tresh-hold
   EBREAK =  0.26E-08  absolut break condition
   DEPER  =   0.30     relativ break condition  

   TIME   =   0.40     timestep for ELM

  volume/ion in A,a.u.               =      20.71       139.75
  Fermi-wavevector in a.u.,A,eV,Ry     =   0.959306  1.812825 12.520994  0.920267
  Thomas-Fermi vector in A             =   2.088490
 
 Write flags
   LWAVE  =      T    write WAVECAR
   LCHARG =      T    write CHGCAR
   LVTOT  =      F    write LOCPOT, total local potential
   LVHAR  =      F    write LOCPOT, Hartree potential only
   LELF   =      F    write electronic localiz. function (ELF)
   LORBIT =     10    0 simple, 1 ext, 2 COOP (PROOUT)


 Dipole corrections
   LMONO  =      F    monopole corrections only (constant potential shift)
   LDIPOL =      F    correct potential (dipole corrections)
   IDIPOL =      0    1-x, 2-y, 3-z, 4-all directions 
   EPSILON=  1.0000000 bulk dielectric constant

 Core level calculations are selected ICORELEVEL =  1
 Exchange correlation treatment:
   GGA     =    --    GGA type
   LEXCH   =     8    internal setting for exchange type
   VOSKOWN=      0    Vosko Wilk Nusair interpolation
   EXXOEP  =     0    0=HF, 1=EXX-LHF (local Hartree Fock) 2=EXX OEP
   LHFCALC =     T    Hartree Fock is set to
   LSYMGRAD=     F    symmetrize gradient (conserves proper symmetry)
   PRECFOCK=fast      Normal, Fast or Accurate (Low or Medium for compatibility)
   LRHFCALC=     F    long range Hartree Fock
   LRSCOR  =     F    long range correlation only (use DFT for short range part)
   LTHOMAS =     F    Thomas Fermi screening in HF
   LMODELHF=     F    short range full HF, long range fraction AEXX
   ENCUT4O =  -1.0   cutoff for four orbital integrals eV
   LMAXFOCK=     4    L truncation for augmentation on plane wave grid
   LMAXFOCKAE=  -1    L truncation for all-electron charge restoration on plane wave grid
   NMAXFOCKAE=   1    number of basis functions for all-electron charge restoration
   LFOCKAEDFT=     F  apply the AE augmentation even for DFT
   NKREDX  =     1    reduce k-point grid by
   NKREDY  =     1    reduce k-point grid by
   NKREDZ  =     1    reduce k-point grid by
   SHIFTRED=     F    shift reduced grid of Gamma
   HFKIDENT=     F    idential grid for each k-point
   ODDONLY =     F    use only odd q-grid points
   EVENONLY=     F    use only even q-grid points
   HFALPHA =   -1.0000 decay constant for conv. correction
   MCALPHA =    0.0000 extent of test-charge in conv. correction in multipole expansion
   AEXX    =    0.2500 exact exchange contribution
   HFSCREEN=    0.2070 screening length (either q_TF or 0.3 A-1)
   HFSCREENC=   0.2070 screening length for correlation (either q_TF or 0.3 A-1)
   HFRCUT  =    0.0000 spherical cutoff for potential kernel
   ALDAX   =    0.7500 LDA exchange part
   AGGAX   =    0.7500 GGA exchange part
   ALDAC   =    1.0000 LDA correlation
   AGGAC   =    1.0000 GGA correlation
   NBANDSGWLOW=     1    first orbital included in HF term
   ENCUTFOCK=  -1.0 apply spherical cutoff to Coloumb kernel
 Linear response parameters
   LEPSILON=     F    determine dielectric tensor
   LRPA    =     F    only Hartree local field effects (RPA)
   LNABLA  =     F    use nabla operator in PAW spheres
   LVEL    =     F    velocity operator in full k-point grid
   LINTERFAST=   F  fast interpolation
   KINTER  =     0    interpolate to denser k-point grid
   CSHIFT  =0.1000    complex shift for real part using Kramers Kronig
   OMEGAMAX=  -1.0    maximum frequency
   DEG_THRESHOLD= 0.2000000E-02 threshold for treating states as degnerate
   RTIME   =    0.100 relaxation time in fs

 Orbital magnetization related:
   ORBITALMAG=     F  switch on orbital magnetization
   LCHIMAG   =     F  perturbation theory with respect to B field
   DQ        =  0.001000  dq finite difference perturbation B field



--------------------------------------------------------------------------------------------------------


 Static calculation
 charge density and potential will be updated during run
 non collinear spin polarized calculation
 Conjugate gradient for all bands (Freysoldt, et al. PRB 79, 241103 (2009))
 preconditioned conjugated gradient                                        
 perform sub-space diagonalisation
    before iterative eigenvector-optimisation
 modified Broyden-mixing scheme, WC =      100.0
 initial mixing is a Kerker type mixing with AMIX =  0.4000 and BMIX =      1.0000
 Hartree-type preconditioning will be used
 using additional bands           71
 reciprocal scheme for non local part
 use partial core corrections
 no Harris-corrections to forces 
 use gradient corrections 
 use of overlap-Matrix (Vanderbilt PP)
 Gauss-broadening in eV      SIGMA  =   0.01


--------------------------------------------------------------------------------------------------------


  energy-cutoff  :      500.00
  volume of cell :      248.50
      direct lattice vectors                 reciprocal lattice vectors
     6.290120125  0.000000000  0.000000000     0.158979476 -0.000001969  0.001001495
     0.000077694  6.273890018  0.000000000     0.000000000  0.159390744  0.000003893
    -0.039667571 -0.000153793  6.296915042     0.000000000  0.000000000  0.158807923

  length of vectors
     6.290120125  6.273890018  6.297039986     0.158982630  0.159390744  0.158807923


 
 k-points in units of 2pi/SCALE and weight: Automatically generated mesh            
   0.00000000  0.00000000  0.00000000       0.005
   0.02649658 -0.00000033  0.00016692       0.005
   0.05299316 -0.00000066  0.00033383       0.005
   0.07948974 -0.00000098  0.00050075       0.005
  -0.05299316  0.00000066 -0.00033383       0.005
  -0.02649658  0.00000033 -0.00016692       0.005
   0.00000000  0.02656512  0.00000065       0.005
   0.02649658  0.02656480  0.00016756       0.005
   0.05299316  0.02656447  0.00033448       0.005
   0.07948974  0.02656414  0.00050140       0.005
  -0.05299316  0.02656578 -0.00033318       0.005
  -0.02649658  0.02656545 -0.00016627       0.005
   0.00000000  0.05313025  0.00000130       0.005
   0.02649658  0.05312992  0.00016821       0.005
   0.05299316  0.05312959  0.00033513       0.005
   0.07948974  0.05312926  0.00050205       0.005
  -0.05299316  0.05313090 -0.00033253       0.005
  -0.02649658  0.05313058 -0.00016562       0.005
   0.00000000  0.07969537  0.00000195       0.005
   0.02649658  0.07969504  0.00016886       0.005
   0.05299316  0.07969472  0.00033578       0.005
   0.07948974  0.07969439  0.00050269       0.005
  -0.05299316  0.07969603 -0.00033189       0.005
  -0.02649658  0.07969570 -0.00016497       0.005
   0.00000000 -0.05313025 -0.00000130       0.005
   0.02649658 -0.05313058  0.00016562       0.005
   0.05299316 -0.05313090  0.00033253       0.005
   0.07948974 -0.05313123  0.00049945       0.005
  -0.05299316 -0.05312959 -0.00033513       0.005
  -0.02649658 -0.05312992 -0.00016821       0.005
   0.00000000 -0.02656512 -0.00000065       0.005
   0.02649658 -0.02656545  0.00016627       0.005
   0.05299316 -0.02656578  0.00033318       0.005
   0.07948974 -0.02656611  0.00050010       0.005
  -0.05299316 -0.02656447 -0.00033448       0.005
  -0.02649658 -0.02656480 -0.00016756       0.005
   0.00000000  0.00000000  0.02646799       0.005
   0.02649658 -0.00000033  0.02663490       0.005
   0.05299316 -0.00000066  0.02680182       0.005
   0.07948974 -0.00000098  0.02696873       0.005
  -0.05299316  0.00000066  0.02613416       0.005
  -0.02649658  0.00000033  0.02630107       0.005
   0.00000000  0.02656512  0.02646864       0.005
   0.02649658  0.02656480  0.02663555       0.005
   0.05299316  0.02656447  0.02680247       0.005
   0.07948974  0.02656414  0.02696938       0.005
  -0.05299316  0.02656578  0.02613480       0.005
  -0.02649658  0.02656545  0.02630172       0.005
   0.00000000  0.05313025  0.02646928       0.005
   0.02649658  0.05312992  0.02663620       0.005
   0.05299316  0.05312959  0.02680312       0.005
   0.07948974  0.05312926  0.02697003       0.005
  -0.05299316  0.05313090  0.02613545       0.005
  -0.02649658  0.05313058  0.02630237       0.005
   0.00000000  0.07969537  0.02646993       0.005
   0.02649658  0.07969504  0.02663685       0.005
   0.05299316  0.07969472  0.02680377       0.005
   0.07948974  0.07969439  0.02697068       0.005
  -0.05299316  0.07969603  0.02613610       0.005
  -0.02649658  0.07969570  0.02630302       0.005
   0.00000000 -0.05313025  0.02646669       0.005
   0.02649658 -0.05313058  0.02663361       0.005
   0.05299316 -0.05313090  0.02680052       0.005
   0.07948974 -0.05313123  0.02696744       0.005
  -0.05299316 -0.05312959  0.02613286       0.005
  -0.02649658 -0.05312992  0.02629977       0.005
   0.00000000 -0.02656512  0.02646734       0.005
   0.02649658 -0.02656545  0.02663425       0.005
   0.05299316 -0.02656578  0.02680117       0.005
   0.07948974 -0.02656611  0.02696809       0.005
  -0.05299316 -0.02656447  0.02613351       0.005
  -0.02649658 -0.02656480  0.02630042       0.005
   0.00000000  0.00000000  0.05293597       0.005
   0.02649658 -0.00000033  0.05310289       0.005
   0.05299316 -0.00000066  0.05326981       0.005
   0.07948974 -0.00000098  0.05343672       0.005
  -0.05299316  0.00000066  0.05260214       0.005
  -0.02649658  0.00000033  0.05276906       0.005
   0.00000000  0.02656512  0.05293662       0.005
   0.02649658  0.02656480  0.05310354       0.005
   0.05299316  0.02656447  0.05327045       0.005
   0.07948974  0.02656414  0.05343737       0.005
  -0.05299316  0.02656578  0.05260279       0.005
  -0.02649658  0.02656545  0.05276971       0.005
   0.00000000  0.05313025  0.05293727       0.005
   0.02649658  0.05312992  0.05310419       0.005
   0.05299316  0.05312959  0.05327110       0.005
   0.07948974  0.05312926  0.05343802       0.005
  -0.05299316  0.05313090  0.05260344       0.005
  -0.02649658  0.05313058  0.05277036       0.005
   0.00000000  0.07969537  0.05293792       0.005
   0.02649658  0.07969504  0.05310484       0.005
   0.05299316  0.07969472  0.05327175       0.005
   0.07948974  0.07969439  0.05343867       0.005
  -0.05299316  0.07969603  0.05260409       0.005
  -0.02649658  0.07969570  0.05277100       0.005
   0.00000000 -0.05313025  0.05293468       0.005
   0.02649658 -0.05313058  0.05310159       0.005
   0.05299316 -0.05313090  0.05326851       0.005
   0.07948974 -0.05313123  0.05343542       0.005
  -0.05299316 -0.05312959  0.05260085       0.005
  -0.02649658 -0.05312992  0.05276776       0.005
   0.00000000 -0.02656512  0.05293533       0.005
   0.02649658 -0.02656545  0.05310224       0.005
   0.05299316 -0.02656578  0.05326916       0.005
   0.07948974 -0.02656611  0.05343607       0.005
  -0.05299316 -0.02656447  0.05260149       0.005
  -0.02649658 -0.02656480  0.05276841       0.005
   0.00000000  0.00000000  0.07940396       0.005
   0.02649658 -0.00000033  0.07957088       0.005
   0.05299316 -0.00000066  0.07973779       0.005
   0.07948974 -0.00000098  0.07990471       0.005
  -0.05299316  0.00000066  0.07907013       0.005
  -0.02649658  0.00000033  0.07923705       0.005
   0.00000000  0.02656512  0.07940461       0.005
   0.02649658  0.02656480  0.07957153       0.005
   0.05299316  0.02656447  0.07973844       0.005
   0.07948974  0.02656414  0.07990536       0.005
  -0.05299316  0.02656578  0.07907078       0.005
  -0.02649658  0.02656545  0.07923769       0.005
   0.00000000  0.05313025  0.07940526       0.005
   0.02649658  0.05312992  0.07957218       0.005
   0.05299316  0.05312959  0.07973909       0.005
   0.07948974  0.05312926  0.07990601       0.005
  -0.05299316  0.05313090  0.07907143       0.005
  -0.02649658  0.05313058  0.07923834       0.005
   0.00000000  0.07969537  0.07940591       0.005
   0.02649658  0.07969504  0.07957282       0.005
   0.05299316  0.07969472  0.07973974       0.005
   0.07948974  0.07969439  0.07990666       0.005
  -0.05299316  0.07969603  0.07907208       0.005
  -0.02649658  0.07969570  0.07923899       0.005
   0.00000000 -0.05313025  0.07940266       0.005
   0.02649658 -0.05313058  0.07956958       0.005
   0.05299316 -0.05313090  0.07973650       0.005
   0.07948974 -0.05313123  0.07990341       0.005
  -0.05299316 -0.05312959  0.07906883       0.005
  -0.02649658 -0.05312992  0.07923575       0.005
   0.00000000 -0.02656512  0.07940331       0.005
   0.02649658 -0.02656545  0.07957023       0.005
   0.05299316 -0.02656578  0.07973714       0.005
   0.07948974 -0.02656611  0.07990406       0.005
  -0.05299316 -0.02656447  0.07906948       0.005
  -0.02649658 -0.02656480  0.07923640       0.005
   0.00000000  0.00000000 -0.05293597       0.005
   0.02649658 -0.00000033 -0.05276906       0.005
   0.05299316 -0.00000066 -0.05260214       0.005
   0.07948974 -0.00000098 -0.05243523       0.005
  -0.05299316  0.00000066 -0.05326981       0.005
  -0.02649658  0.00000033 -0.05310289       0.005
   0.00000000  0.02656512 -0.05293533       0.005
   0.02649658  0.02656480 -0.05276841       0.005
   0.05299316  0.02656447 -0.05260149       0.005
   0.07948974  0.02656414 -0.05243458       0.005
  -0.05299316  0.02656578 -0.05326916       0.005
  -0.02649658  0.02656545 -0.05310224       0.005
   0.00000000  0.05313025 -0.05293468       0.005
   0.02649658  0.05312992 -0.05276776       0.005
   0.05299316  0.05312959 -0.05260085       0.005
   0.07948974  0.05312926 -0.05243393       0.005
  -0.05299316  0.05313090 -0.05326851       0.005
  -0.02649658  0.05313058 -0.05310159       0.005
   0.00000000  0.07969537 -0.05293403       0.005
   0.02649658  0.07969504 -0.05276711       0.005
   0.05299316  0.07969472 -0.05260020       0.005
   0.07948974  0.07969439 -0.05243328       0.005
  -0.05299316  0.07969603 -0.05326786       0.005
  -0.02649658  0.07969570 -0.05310094       0.005
   0.00000000 -0.05313025 -0.05293727       0.005
   0.02649658 -0.05313058 -0.05277036       0.005
   0.05299316 -0.05313090 -0.05260344       0.005
   0.07948974 -0.05313123 -0.05243652       0.005
  -0.05299316 -0.05312959 -0.05327110       0.005
  -0.02649658 -0.05312992 -0.05310419       0.005
   0.00000000 -0.02656512 -0.05293662       0.005
   0.02649658 -0.02656545 -0.05276971       0.005
   0.05299316 -0.02656578 -0.05260279       0.005
   0.07948974 -0.02656611 -0.05243588       0.005
  -0.05299316 -0.02656447 -0.05327045       0.005
  -0.02649658 -0.02656480 -0.05310354       0.005
   0.00000000  0.00000000 -0.02646799       0.005
   0.02649658 -0.00000033 -0.02630107       0.005
   0.05299316 -0.00000066 -0.02613416       0.005
   0.07948974 -0.00000098 -0.02596724       0.005
  -0.05299316  0.00000066 -0.02680182       0.005
  -0.02649658  0.00000033 -0.02663490       0.005
   0.00000000  0.02656512 -0.02646734       0.005
   0.02649658  0.02656480 -0.02630042       0.005
   0.05299316  0.02656447 -0.02613351       0.005
   0.07948974  0.02656414 -0.02596659       0.005
  -0.05299316  0.02656578 -0.02680117       0.005
  -0.02649658  0.02656545 -0.02663425       0.005
   0.00000000  0.05313025 -0.02646669       0.005
   0.02649658  0.05312992 -0.02629977       0.005
   0.05299316  0.05312959 -0.02613286       0.005
   0.07948974  0.05312926 -0.02596594       0.005
  -0.05299316  0.05313090 -0.02680052       0.005
  -0.02649658  0.05313058 -0.02663361       0.005
   0.00000000  0.07969537 -0.02646604       0.005
   0.02649658  0.07969504 -0.02629912       0.005
   0.05299316  0.07969472 -0.02613221       0.005
   0.07948974  0.07969439 -0.02596529       0.005
  -0.05299316  0.07969603 -0.02679987       0.005
  -0.02649658  0.07969570 -0.02663296       0.005
   0.00000000 -0.05313025 -0.02646928       0.005
   0.02649658 -0.05313058 -0.02630237       0.005
   0.05299316 -0.05313090 -0.02613545       0.005
   0.07948974 -0.05313123 -0.02596854       0.005
  -0.05299316 -0.05312959 -0.02680312       0.005
  -0.02649658 -0.05312992 -0.02663620       0.005
   0.00000000 -0.02656512 -0.02646864       0.005
   0.02649658 -0.02656545 -0.02630172       0.005
   0.05299316 -0.02656578 -0.02613480       0.005
   0.07948974 -0.02656611 -0.02596789       0.005
  -0.05299316 -0.02656447 -0.02680247       0.005
  -0.02649658 -0.02656480 -0.02663555       0.005
   0.00000000  0.00000000  0.00000000       0.000
   0.00180659  0.00181124  0.00181606       0.000
   0.00361317  0.00362247  0.00363212       0.000
   0.00541976  0.00543371  0.00544818       0.000
   0.00722634  0.00724494  0.00726424       0.000
   0.00903292  0.00905618  0.00908030       0.000
   0.01083951  0.01086742  0.01089636       0.000
   0.01264609  0.01267865  0.01271242       0.000
   0.01445268  0.01448989  0.01452848       0.000
   0.01625926  0.01630112  0.01634454       0.000
   0.01806585  0.01811236  0.01816060       0.000
   0.01987243  0.01992360  0.01997666       0.000
   0.02167902  0.02173483  0.02179272       0.000
   0.02348560  0.02354607  0.02360878       0.000
   0.02529219  0.02535731  0.02542485       0.000
   0.02709877  0.02716854  0.02724090       0.000
   0.02890536  0.02897978  0.02905696       0.000
   0.03071194  0.03079101  0.03087302       0.000
   0.03251853  0.03260225  0.03268908       0.000
   0.03432511  0.03441349  0.03450515       0.000
   0.03613170  0.03622472  0.03632121       0.000
   0.03793828  0.03803596  0.03813727       0.000
   0.03974487  0.03984719  0.03995333       0.000
   0.04155145  0.04165843  0.04176939       0.000
   0.04335804  0.04346967  0.04358545       0.000
   0.04516462  0.04528090  0.04540151       0.000
   0.04697121  0.04709214  0.04721757       0.000
   0.04877779  0.04890337  0.04903363       0.000
   0.05058438  0.05071461  0.05084969       0.000
   0.05239096  0.05252584  0.05266575       0.000
   0.05419754  0.05433708  0.05448181       0.000
   0.05600413  0.05614832  0.05629787       0.000
   0.05781071  0.05795955  0.05811393       0.000
   0.05961730  0.05977079  0.05992999       0.000
   0.06142389  0.06158203  0.06174605       0.000
   0.06323047  0.06339326  0.06356211       0.000
   0.06503705  0.06520449  0.06537817       0.000
   0.06684364  0.06701573  0.06719423       0.000
   0.06865023  0.06882697  0.06901029       0.000
   0.07045681  0.07063820  0.07082635       0.000
   0.07226340  0.07244944  0.07264241       0.000
   0.07406998  0.07426067  0.07445847       0.000
   0.07587657  0.07607191  0.07627453       0.000
   0.07768315  0.07788315  0.07809059       0.000
   0.07948973  0.07969438  0.07990665       0.000
   0.07721860  0.07969442  0.07762366       0.000
   0.07494747  0.07969444  0.07534067       0.000
   0.07267633  0.07969447  0.07305768       0.000
   0.07040520  0.07969450  0.07077469       0.000
   0.06813406  0.07969453  0.06849170       0.000
   0.06586293  0.07969456  0.06620871       0.000
   0.06359179  0.07969458  0.06392572       0.000
   0.06132066  0.07969461  0.06164272       0.000
   0.05904952  0.07969464  0.05935973       0.000
   0.05677839  0.07969467  0.05707674       0.000
   0.05450725  0.07969470  0.05479375       0.000
   0.05223612  0.07969473  0.05251076       0.000
   0.04996498  0.07969475  0.05022777       0.000
   0.04769384  0.07969478  0.04794477       0.000
   0.04542271  0.07969481  0.04566178       0.000
   0.04315157  0.07969484  0.04337879       0.000
   0.04088043  0.07969487  0.04109579       0.000
   0.03860930  0.07969489  0.03881280       0.000
   0.03633816  0.07969492  0.03652981       0.000
   0.03406703  0.07969495  0.03424682       0.000
   0.03179590  0.07969498  0.03196383       0.000
   0.02952476  0.07969501  0.02968084       0.000
   0.02725363  0.07969503  0.02739785       0.000
   0.02498249  0.07969506  0.02511485       0.000
   0.02271136  0.07969509  0.02283187       0.000
   0.02044022  0.07969512  0.02054888       0.000
   0.01816909  0.07969515  0.01826588       0.000
   0.01589795  0.07969518  0.01598289       0.000
   0.01362682  0.07969520  0.01369990       0.000
   0.01135568  0.07969523  0.01141691       0.000
   0.00908454  0.07969526  0.00913391       0.000
   0.00681341  0.07969529  0.00685092       0.000
   0.00454227  0.07969532  0.00456793       0.000
   0.00227113  0.07969534  0.00228494       0.000
   0.00000000  0.07969537  0.00000195       0.000
   0.00317959  0.07969533  0.00002198       0.000
   0.00635918  0.07969529  0.00004201       0.000
   0.00953877  0.07969525  0.00006204       0.000
   0.01271836  0.07969521  0.00008207       0.000
   0.01589795  0.07969518  0.00010210       0.000
   0.01907754  0.07969514  0.00012213       0.000
   0.02225713  0.07969510  0.00014216       0.000
   0.02543672  0.07969506  0.00016219       0.000
   0.02861630  0.07969502  0.00018222       0.000
   0.03179589  0.07969498  0.00020225       0.000
   0.03497548  0.07969494  0.00022228       0.000
   0.03815507  0.07969490  0.00024231       0.000
   0.04133466  0.07969486  0.00026234       0.000
   0.04451425  0.07969482  0.00028237       0.000
   0.04769384  0.07969478  0.00030239       0.000
   0.05087343  0.07969474  0.00032242       0.000
   0.05405302  0.07969470  0.00034245       0.000
   0.05723261  0.07969466  0.00036248       0.000
   0.06041220  0.07969462  0.00038251       0.000
   0.06359179  0.07969458  0.00040254       0.000
   0.06677138  0.07969455  0.00042257       0.000
   0.06995097  0.07969451  0.00044260       0.000
   0.07313056  0.07969447  0.00046263       0.000
   0.07631015  0.07969443  0.00048266       0.000
   0.07948974  0.07969439  0.00050269       0.000
   0.07948974  0.07969439  0.00367885       0.000
   0.07948974  0.07969439  0.00685501       0.000
   0.07948974  0.07969439  0.01003117       0.000
   0.07948974  0.07969439  0.01320733       0.000
   0.07948974  0.07969439  0.01638348       0.000
   0.07948974  0.07969439  0.01955964       0.000
   0.07948974  0.07969439  0.02273580       0.000
   0.07948974  0.07969439  0.02591196       0.000
   0.07948974  0.07969439  0.02908812       0.000
   0.07948974  0.07969439  0.03226428       0.000
   0.07948974  0.07969439  0.03544044       0.000
   0.07948974  0.07969439  0.03861659       0.000
   0.07948974  0.07969439  0.04179275       0.000
   0.07948974  0.07969439  0.04496891       0.000
   0.07948974  0.07969439  0.04814507       0.000
   0.07948974  0.07969439  0.05132123       0.000
   0.07948974  0.07969439  0.05449739       0.000
   0.07948974  0.07969439  0.05767354       0.000
   0.07948974  0.07969439  0.06084970       0.000
   0.07948974  0.07969439  0.06402586       0.000
   0.07948974  0.07969439  0.06720202       0.000
   0.07948974  0.07969439  0.07037818       0.000
   0.07948974  0.07969439  0.07355434       0.000
   0.07948974  0.07969439  0.07673050       0.000
   0.07948974  0.07969439  0.07990666       0.000
 
 k-points in reciprocal lattice and weights: Automatically generated mesh            
   0.00000000  0.00000000  0.00000000       0.005
   0.16666667  0.00000000  0.00000000       0.005
   0.33333333  0.00000000  0.00000000       0.005
   0.50000000  0.00000000  0.00000000       0.005
  -0.33333333  0.00000000  0.00000000       0.005
  -0.16666667  0.00000000  0.00000000       0.005
   0.00000000  0.16666667  0.00000000       0.005
   0.16666667  0.16666667  0.00000000       0.005
   0.33333333  0.16666667  0.00000000       0.005
   0.50000000  0.16666667  0.00000000       0.005
  -0.33333333  0.16666667  0.00000000       0.005
  -0.16666667  0.16666667  0.00000000       0.005
   0.00000000  0.33333333  0.00000000       0.005
   0.16666667  0.33333333  0.00000000       0.005
   0.33333333  0.33333333  0.00000000       0.005
   0.50000000  0.33333333  0.00000000       0.005
  -0.33333333  0.33333333  0.00000000       0.005
  -0.16666667  0.33333333  0.00000000       0.005
   0.00000000  0.50000000  0.00000000       0.005
   0.16666667  0.50000000  0.00000000       0.005
   0.33333333  0.50000000  0.00000000       0.005
   0.50000000  0.50000000  0.00000000       0.005
  -0.33333333  0.50000000  0.00000000       0.005
  -0.16666667  0.50000000  0.00000000       0.005
   0.00000000 -0.33333333  0.00000000       0.005
   0.16666667 -0.33333333  0.00000000       0.005
   0.33333333 -0.33333333  0.00000000       0.005
   0.50000000 -0.33333333  0.00000000       0.005
  -0.33333333 -0.33333333  0.00000000       0.005
  -0.16666667 -0.33333333  0.00000000       0.005
   0.00000000 -0.16666667  0.00000000       0.005
   0.16666667 -0.16666667  0.00000000       0.005
   0.33333333 -0.16666667  0.00000000       0.005
   0.50000000 -0.16666667  0.00000000       0.005
  -0.33333333 -0.16666667  0.00000000       0.005
  -0.16666667 -0.16666667  0.00000000       0.005
   0.00000000  0.00000000  0.16666667       0.005
   0.16666667  0.00000000  0.16666667       0.005
   0.33333333  0.00000000  0.16666667       0.005
   0.50000000  0.00000000  0.16666667       0.005
  -0.33333333  0.00000000  0.16666667       0.005
  -0.16666667  0.00000000  0.16666667       0.005
   0.00000000  0.16666667  0.16666667       0.005
   0.16666667  0.16666667  0.16666667       0.005
   0.33333333  0.16666667  0.16666667       0.005
   0.50000000  0.16666667  0.16666667       0.005
  -0.33333333  0.16666667  0.16666667       0.005
  -0.16666667  0.16666667  0.16666667       0.005
   0.00000000  0.33333333  0.16666667       0.005
   0.16666667  0.33333333  0.16666667       0.005
   0.33333333  0.33333333  0.16666667       0.005
   0.50000000  0.33333333  0.16666667       0.005
  -0.33333333  0.33333333  0.16666667       0.005
  -0.16666667  0.33333333  0.16666667       0.005
   0.00000000  0.50000000  0.16666667       0.005
   0.16666667  0.50000000  0.16666667       0.005
   0.33333333  0.50000000  0.16666667       0.005
   0.50000000  0.50000000  0.16666667       0.005
  -0.33333333  0.50000000  0.16666667       0.005
  -0.16666667  0.50000000  0.16666667       0.005
   0.00000000 -0.33333333  0.16666667       0.005
   0.16666667 -0.33333333  0.16666667       0.005
   0.33333333 -0.33333333  0.16666667       0.005
   0.50000000 -0.33333333  0.16666667       0.005
  -0.33333333 -0.33333333  0.16666667       0.005
  -0.16666667 -0.33333333  0.16666667       0.005
   0.00000000 -0.16666667  0.16666667       0.005
   0.16666667 -0.16666667  0.16666667       0.005
   0.33333333 -0.16666667  0.16666667       0.005
   0.50000000 -0.16666667  0.16666667       0.005
  -0.33333333 -0.16666667  0.16666667       0.005
  -0.16666667 -0.16666667  0.16666667       0.005
   0.00000000  0.00000000  0.33333333       0.005
   0.16666667  0.00000000  0.33333333       0.005
   0.33333333  0.00000000  0.33333333       0.005
   0.50000000  0.00000000  0.33333333       0.005
  -0.33333333  0.00000000  0.33333333       0.005
  -0.16666667  0.00000000  0.33333333       0.005
   0.00000000  0.16666667  0.33333333       0.005
   0.16666667  0.16666667  0.33333333       0.005
   0.33333333  0.16666667  0.33333333       0.005
   0.50000000  0.16666667  0.33333333       0.005
  -0.33333333  0.16666667  0.33333333       0.005
  -0.16666667  0.16666667  0.33333333       0.005
   0.00000000  0.33333333  0.33333333       0.005
   0.16666667  0.33333333  0.33333333       0.005
   0.33333333  0.33333333  0.33333333       0.005
   0.50000000  0.33333333  0.33333333       0.005
  -0.33333333  0.33333333  0.33333333       0.005
  -0.16666667  0.33333333  0.33333333       0.005
   0.00000000  0.50000000  0.33333333       0.005
   0.16666667  0.50000000  0.33333333       0.005
   0.33333333  0.50000000  0.33333333       0.005
   0.50000000  0.50000000  0.33333333       0.005
  -0.33333333  0.50000000  0.33333333       0.005
  -0.16666667  0.50000000  0.33333333       0.005
   0.00000000 -0.33333333  0.33333333       0.005
   0.16666667 -0.33333333  0.33333333       0.005
   0.33333333 -0.33333333  0.33333333       0.005
   0.50000000 -0.33333333  0.33333333       0.005
  -0.33333333 -0.33333333  0.33333333       0.005
  -0.16666667 -0.33333333  0.33333333       0.005
   0.00000000 -0.16666667  0.33333333       0.005
   0.16666667 -0.16666667  0.33333333       0.005
   0.33333333 -0.16666667  0.33333333       0.005
   0.50000000 -0.16666667  0.33333333       0.005
  -0.33333333 -0.16666667  0.33333333       0.005
  -0.16666667 -0.16666667  0.33333333       0.005
[...]
      2.97634      3.13707      2.99511              NaN           NaN           NaN
      2.64610      3.13606      6.12444              NaN           NaN           NaN
      2.72152      0.00020      3.18965              NaN           NaN           NaN
      6.03902      3.13830      2.81942              NaN           NaN           NaN
 -----------------------------------------------------------------------------------
    total drift:                                     NaN           NaN           NaN


--------------------------------------------------------------------------------------------------------



  FREE ENERGIE OF THE ION-ELECTRON SYSTEM (eV)
  ---------------------------------------------------
  free  energy   TOTEN  =       -60.64140795 eV

  energy  without entropy=      -60.64140795  energy(sigma->0) =      -60.64140795
 


--------------------------------------------------------------------------------------------------------


    POTLOK:  cpu time    0.6520: real time    0.6521


--------------------------------------------------------------------------------------------------------


 writing wavefunctions
     LOOP+:  cpu time37498.9555: real time37543.5299
    4ORBIT:  cpu time    0.0000: real time    0.0000

 Spin-Orbit-Coupling matrix elements

 Ion:    1  E_soc:     -0.0000125
 l=   1
     0.0000000    -0.0000025    -0.0000019
    -0.0000025     0.0000000    -0.0000019
    -0.0000019    -0.0000019     0.0000000
 l=   2
     0.0000000     0.0000000     0.0000000     0.0000000     0.0000000
     0.0000000     0.0000000     0.0000000     0.0000000     0.0000000
     0.0000000     0.0000000     0.0000000     0.0000000     0.0000000
     0.0000000     0.0000000     0.0000000     0.0000000     0.0000000
     0.0000000     0.0000000     0.0000000     0.0000000     0.0000000
 l=   3
     0.0000000     0.0000000     0.0000000     0.0000000     0.0000000     0.0000000     0.0000000
     0.0000000     0.0000000     0.0000000     0.0000000     0.0000000     0.0000000     0.0000000
     0.0000000     0.0000000     0.0000000     0.0000000     0.0000000     0.0000000     0.0000000
     0.0000000     0.0000000     0.0000000     0.0000000     0.0000000     0.0000000     0.0000000
     0.0000000     0.0000000     0.0000000     0.0000000     0.0000000     0.0000000     0.0000000
     0.0000000     0.0000000     0.0000000     0.0000000     0.0000000     0.0000000     0.0000000
     0.0000000     0.0000000     0.0000000     0.0000000     0.0000000     0.0000000     0.0000000

 Ion:    2  E_soc:     -0.0000472
 l=   1
     0.0000000    -0.0000074    -0.0000080
    -0.0000074     0.0000000    -0.0000082
    -0.0000080    -0.0000082     0.0000000
 l=   2
     0.0000000     0.0000000     0.0000000     0.0000000     0.0000000
     0.0000000     0.0000000     0.0000000     0.0000000     0.0000000
     0.0000000     0.0000000     0.0000000     0.0000000     0.0000000
     0.0000000     0.0000000     0.0000000     0.0000000     0.0000000
     0.0000000     0.0000000     0.0000000     0.0000000     0.0000000
 l=   3
     0.0000000     0.0000000     0.0000000     0.0000000     0.0000000     0.0000000     0.0000000
     0.0000000     0.0000000     0.0000000     0.0000000     0.0000000     0.0000000     0.0000000
     0.0000000     0.0000000     0.0000000     0.0000000     0.0000000     0.0000000     0.0000000
     0.0000000     0.0000000     0.0000000     0.0000000     0.0000000     0.0000000     0.0000000
     0.0000000     0.0000000     0.0000000     0.0000000     0.0000000     0.0000000     0.0000000
     0.0000000     0.0000000     0.0000000     0.0000000     0.0000000     0.0000000     0.0000000
     0.0000000     0.0000000     0.0000000     0.0000000     0.0000000     0.0000000     0.0000000

 Ion:    3  E_soc:     -0.0000000
 l=   1
     0.0000000    -0.0000000    -0.0000000
    -0.0000000     0.0000000    -0.0000000
    -0.0000000    -0.0000000     0.0000000
 l=   2
     0.0000000     0.0000000     0.0000000     0.0000000     0.0000000
     0.0000000     0.0000000     0.0000000     0.0000000     0.0000000
     0.0000000     0.0000000     0.0000000     0.0000000     0.0000000
     0.0000000     0.0000000     0.0000000     0.0000000     0.0000000
     0.0000000     0.0000000     0.0000000     0.0000000     0.0000000
 l=   3
     0.0000000     0.0000000     0.0000000     0.0000000     0.0000000     0.0000000     0.0000000
     0.0000000     0.0000000     0.0000000     0.0000000     0.0000000     0.0000000     0.0000000
     0.0000000     0.0000000     0.0000000     0.0000000     0.0000000     0.0000000     0.0000000
     0.0000000     0.0000000     0.0000000     0.0000000     0.0000000     0.0000000     0.0000000
     0.0000000     0.0000000     0.0000000     0.0000000     0.0000000     0.0000000     0.0000000
     0.0000000     0.0000000     0.0000000     0.0000000     0.0000000     0.0000000     0.0000000
     0.0000000     0.0000000     0.0000000     0.0000000     0.0000000     0.0000000     0.0000000

 Ion:    4  E_soc:     -0.0000000
 l=   1
     0.0000000    -0.0000000    -0.0000000
    -0.0000000     0.0000000    -0.0000000
    -0.0000000    -0.0000000     0.0000000
 l=   2
     0.0000000     0.0000000     0.0000000     0.0000000     0.0000000
     0.0000000     0.0000000     0.0000000     0.0000000     0.0000000
     0.0000000     0.0000000     0.0000000     0.0000000     0.0000000
     0.0000000     0.0000000     0.0000000     0.0000000     0.0000000
     0.0000000     0.0000000     0.0000000     0.0000000     0.0000000
 l=   3
     0.0000000     0.0000000     0.0000000     0.0000000     0.0000000     0.0000000     0.0000000
     0.0000000     0.0000000     0.0000000     0.0000000     0.0000000     0.0000000     0.0000000
     0.0000000     0.0000000     0.0000000     0.0000000     0.0000000     0.0000000     0.0000000
     0.0000000     0.0000000     0.0000000     0.0000000     0.0000000     0.0000000     0.0000000
     0.0000000     0.0000000     0.0000000     0.0000000     0.0000000     0.0000000     0.0000000
     0.0000000     0.0000000     0.0000000     0.0000000     0.0000000     0.0000000     0.0000000
     0.0000000     0.0000000     0.0000000     0.0000000     0.0000000     0.0000000     0.0000000

 Ion:    5  E_soc:     -0.0000000
 l=   1
     0.0000000    -0.0000000    -0.0000000
    -0.0000000     0.0000000    -0.0000000
    -0.0000000    -0.0000000     0.0000000
 l=   2
     0.0000000     0.0000000     0.0000000     0.0000000     0.0000000
     0.0000000     0.0000000     0.0000000     0.0000000     0.0000000
     0.0000000     0.0000000     0.0000000     0.0000000     0.0000000
     0.0000000     0.0000000     0.0000000     0.0000000     0.0000000
     0.0000000     0.0000000     0.0000000     0.0000000     0.0000000
 l=   3
     0.0000000     0.0000000     0.0000000     0.0000000     0.0000000     0.0000000     0.0000000
     0.0000000     0.0000000     0.0000000     0.0000000     0.0000000     0.0000000     0.0000000
     0.0000000     0.0000000     0.0000000     0.0000000     0.0000000     0.0000000     0.0000000
     0.0000000     0.0000000     0.0000000     0.0000000     0.0000000     0.0000000     0.0000000
     0.0000000     0.0000000     0.0000000     0.0000000     0.0000000     0.0000000     0.0000000
     0.0000000     0.0000000     0.0000000     0.0000000     0.0000000     0.0000000     0.0000000
     0.0000000     0.0000000     0.0000000     0.0000000     0.0000000     0.0000000     0.0000000

 Ion:    6  E_soc:     -0.0000001
 l=   1
     0.0000000    -0.0000000    -0.0000000
    -0.0000000     0.0000000    -0.0000000
    -0.0000000    -0.0000000     0.0000000
 l=   2
     0.0000000     0.0000000     0.0000000     0.0000000     0.0000000
     0.0000000     0.0000000     0.0000000     0.0000000     0.0000000
     0.0000000     0.0000000     0.0000000     0.0000000     0.0000000
     0.0000000     0.0000000     0.0000000     0.0000000     0.0000000
     0.0000000     0.0000000     0.0000000     0.0000000     0.0000000
 l=   3
     0.0000000     0.0000000     0.0000000     0.0000000     0.0000000     0.0000000     0.0000000
     0.0000000     0.0000000     0.0000000     0.0000000     0.0000000     0.0000000     0.0000000
     0.0000000     0.0000000     0.0000000     0.0000000     0.0000000     0.0000000     0.0000000
     0.0000000     0.0000000     0.0000000     0.0000000     0.0000000     0.0000000     0.0000000
     0.0000000     0.0000000     0.0000000     0.0000000     0.0000000     0.0000000     0.0000000
     0.0000000     0.0000000     0.0000000     0.0000000     0.0000000     0.0000000     0.0000000
     0.0000000     0.0000000     0.0000000     0.0000000     0.0000000     0.0000000     0.0000000

 Ion:    7  E_soc:     -0.0000001
 l=   1
     0.0000000    -0.0000000    -0.0000000
    -0.0000000     0.0000000    -0.0000000
    -0.0000000    -0.0000000     0.0000000
 l=   2
     0.0000000     0.0000000     0.0000000     0.0000000     0.0000000
     0.0000000     0.0000000     0.0000000     0.0000000     0.0000000
     0.0000000     0.0000000     0.0000000     0.0000000     0.0000000
     0.0000000     0.0000000     0.0000000     0.0000000     0.0000000
     0.0000000     0.0000000     0.0000000     0.0000000     0.0000000
 l=   3
     0.0000000     0.0000000     0.0000000     0.0000000     0.0000000     0.0000000     0.0000000
     0.0000000     0.0000000     0.0000000     0.0000000     0.0000000     0.0000000     0.0000000
     0.0000000     0.0000000     0.0000000     0.0000000     0.0000000     0.0000000     0.0000000
     0.0000000     0.0000000     0.0000000     0.0000000     0.0000000     0.0000000     0.0000000
     0.0000000     0.0000000     0.0000000     0.0000000     0.0000000     0.0000000     0.0000000
     0.0000000     0.0000000     0.0000000     0.0000000     0.0000000     0.0000000     0.0000000
     0.0000000     0.0000000     0.0000000     0.0000000     0.0000000     0.0000000     0.0000000

 Ion:    8  E_soc:     -0.0000001
 l=   1
     0.0000000    -0.0000000    -0.0000000
    -0.0000000     0.0000000    -0.0000000
    -0.0000000    -0.0000000     0.0000000
 l=   2
     0.0000000     0.0000000     0.0000000     0.0000000     0.0000000
     0.0000000     0.0000000     0.0000000     0.0000000     0.0000000
     0.0000000     0.0000000     0.0000000     0.0000000     0.0000000
     0.0000000     0.0000000     0.0000000     0.0000000     0.0000000
     0.0000000     0.0000000     0.0000000     0.0000000     0.0000000
 l=   3
     0.0000000     0.0000000     0.0000000     0.0000000     0.0000000     0.0000000     0.0000000
     0.0000000     0.0000000     0.0000000     0.0000000     0.0000000     0.0000000     0.0000000
     0.0000000     0.0000000     0.0000000     0.0000000     0.0000000     0.0000000     0.0000000
     0.0000000     0.0000000     0.0000000     0.0000000     0.0000000     0.0000000     0.0000000
     0.0000000     0.0000000     0.0000000     0.0000000     0.0000000     0.0000000     0.0000000
     0.0000000     0.0000000     0.0000000     0.0000000     0.0000000     0.0000000     0.0000000
     0.0000000     0.0000000     0.0000000     0.0000000     0.0000000     0.0000000     0.0000000

 Ion:    9  E_soc:     -0.7842802
 l=   1
     0.0000000    -0.0631413    -0.0667496
    -0.0631413     0.0000000    -0.0663673
    -0.0667496    -0.0663673     0.0000000
 l=   2
     0.0000000    -0.0129683     0.0000000    -0.0129507    -0.0523142
    -0.0129683     0.0000000    -0.0392559    -0.0129770    -0.0130913
     0.0000000    -0.0392559     0.0000000    -0.0392378     0.0000000
    -0.0129507    -0.0129770    -0.0392378     0.0000000    -0.0130866
    -0.0523142    -0.0130913     0.0000000    -0.0130866     0.0000000
 l=   3
     0.0000000     0.0000000     0.0000000     0.0000000     0.0000000     0.0000000     0.0000000
     0.0000000     0.0000000     0.0000000     0.0000000     0.0000000     0.0000000     0.0000000
     0.0000000     0.0000000     0.0000000     0.0000000     0.0000000     0.0000000     0.0000000
     0.0000000     0.0000000     0.0000000     0.0000000     0.0000000     0.0000000     0.0000000
     0.0000000     0.0000000     0.0000000     0.0000000     0.0000000     0.0000000     0.0000000
     0.0000000     0.0000000     0.0000000     0.0000000     0.0000000     0.0000000     0.0000000
     0.0000000     0.0000000     0.0000000     0.0000000     0.0000000     0.0000000     0.0000000

 Ion:   10  E_soc:     -0.2591640
 l=   1
     0.0000000    -0.0441585    -0.0405502
    -0.0441585     0.0000000    -0.0448888
    -0.0405502    -0.0448888     0.0000000
 l=   2
     0.0000000    -0.0000023     0.0000000    -0.0000031    -0.0000054
    -0.0000023     0.0000000     0.0000183    -0.0000076    -0.0000035
     0.0000000     0.0000183     0.0000000     0.0000225     0.0000000
    -0.0000031    -0.0000076     0.0000225     0.0000000    -0.0000034
    -0.0000054    -0.0000035     0.0000000    -0.0000034     0.0000000
 l=   3
     0.0000000     0.0000000     0.0000000     0.0000000     0.0000000     0.0000000     0.0000000
     0.0000000     0.0000000     0.0000000     0.0000000     0.0000000     0.0000000     0.0000000
     0.0000000     0.0000000     0.0000000     0.0000000     0.0000000     0.0000000     0.0000000
     0.0000000     0.0000000     0.0000000     0.0000000     0.0000000     0.0000000     0.0000000
     0.0000000     0.0000000     0.0000000     0.0000000     0.0000000     0.0000000     0.0000000
     0.0000000     0.0000000     0.0000000     0.0000000     0.0000000     0.0000000     0.0000000
     0.0000000     0.0000000     0.0000000     0.0000000     0.0000000     0.0000000     0.0000000

 Ion:   11  E_soc:     -0.2600652
 l=   1
     0.0000000    -0.0446016    -0.0449405
    -0.0446016     0.0000000    -0.0405099
    -0.0449405    -0.0405099     0.0000000
 l=   2
     0.0000000    -0.0000076     0.0000000    -0.0000028     0.0000199
    -0.0000076     0.0000000     0.0000047    -0.0000018     0.0000108
     0.0000000     0.0000047     0.0000000    -0.0000032     0.0000000
    -0.0000028    -0.0000018    -0.0000032     0.0000000    -0.0000005
     0.0000199     0.0000108     0.0000000    -0.0000005     0.0000000
 l=   3
     0.0000000     0.0000000     0.0000000     0.0000000     0.0000000     0.0000000     0.0000000
     0.0000000     0.0000000     0.0000000     0.0000000     0.0000000     0.0000000     0.0000000
     0.0000000     0.0000000     0.0000000     0.0000000     0.0000000     0.0000000     0.0000000
     0.0000000     0.0000000     0.0000000     0.0000000     0.0000000     0.0000000     0.0000000
     0.0000000     0.0000000     0.0000000     0.0000000     0.0000000     0.0000000     0.0000000
     0.0000000     0.0000000     0.0000000     0.0000000     0.0000000     0.0000000     0.0000000
     0.0000000     0.0000000     0.0000000     0.0000000     0.0000000     0.0000000     0.0000000

 Ion:   12  E_soc:     -0.2671228
 l=   1
     0.0000000    -0.0405026    -0.0464082
    -0.0405026     0.0000000    -0.0466728
    -0.0464082    -0.0466728     0.0000000
 l=   2
     0.0000000    -0.0000018     0.0000000    -0.0000066     0.0000179
    -0.0000018     0.0000000    -0.0000020    -0.0000019    -0.0000008
     0.0000000    -0.0000020     0.0000000     0.0000056     0.0000000
    -0.0000066    -0.0000019     0.0000056     0.0000000     0.0000118
     0.0000179    -0.0000008     0.0000000     0.0000118     0.0000000
 l=   3
     0.0000000     0.0000000     0.0000000     0.0000000     0.0000000     0.0000000     0.0000000
     0.0000000     0.0000000     0.0000000     0.0000000     0.0000000     0.0000000     0.0000000
     0.0000000     0.0000000     0.0000000     0.0000000     0.0000000     0.0000000     0.0000000
     0.0000000     0.0000000     0.0000000     0.0000000     0.0000000     0.0000000     0.0000000
     0.0000000     0.0000000     0.0000000     0.0000000     0.0000000     0.0000000     0.0000000
     0.0000000     0.0000000     0.0000000     0.0000000     0.0000000     0.0000000     0.0000000
     0.0000000     0.0000000     0.0000000     0.0000000     0.0000000     0.0000000     0.0000000
 


 total charge     
 
# of ion     s       p       d       tot
----------------------------------------
  1        0.844   1.760   0.000   2.604
  2        1.226   2.788   0.000   4.014
  3        0.638   0.046   0.000   0.684
  4        0.637   0.046   0.000   0.683
  5        0.637   0.046   0.000   0.683
  6        0.599   0.080   0.000   0.679
  7        0.599   0.080   0.000   0.679
  8        0.594   0.080   0.000   0.674
  9        1.511   0.502   9.847  11.860
 10        1.506   2.891   0.008   4.405
 11        1.506   2.891   0.008   4.405
 12        1.506   2.877   0.008   4.391
------------------------------------------------
tot       11.802  14.087   9.872  35.761
 


 magnetization (x)
 
# of ion     s       p       d       tot
----------------------------------------
  1        0.000  -0.000   0.000  -0.000
  2       -0.000  -0.000   0.000  -0.000
  3       -0.000   0.000   0.000   0.000
  4        0.000   0.000   0.000   0.000
  5        0.000   0.000   0.000   0.000
  6        0.000  -0.000   0.000   0.000
  7        0.000  -0.000   0.000   0.000
  8        0.000  -0.000   0.000   0.000
  9        0.000   0.000   0.000   0.000
 10        0.000   0.000  -0.000   0.000
 11        0.000   0.000  -0.000   0.000
 12        0.000   0.000  -0.000   0.000
------------------------------------------------
tot        0.000  -0.000   0.000   0.000
 


 magnetization (y)
 
# of ion     s       p       d       tot
----------------------------------------
  1        0.000  -0.000   0.000  -0.000
  2       -0.000  -0.000   0.000  -0.000
  3       -0.000   0.000   0.000   0.000
  4        0.000   0.000   0.000   0.000
  5        0.000   0.000   0.000   0.000
  6        0.000  -0.000   0.000   0.000
  7        0.000  -0.000   0.000   0.000
  8        0.000  -0.000   0.000   0.000
  9        0.000   0.000   0.000   0.000
 10        0.000   0.000  -0.000   0.000
 11        0.000   0.000  -0.000   0.000
 12        0.000   0.000  -0.000   0.000
------------------------------------------------
tot        0.000  -0.000   0.000   0.000
 


 magnetization (z)
 
# of ion     s       p       d       tot
----------------------------------------
  1        0.000  -0.000   0.000  -0.000
  2       -0.000  -0.000   0.000  -0.000
  3       -0.000   0.000   0.000   0.000
  4        0.000   0.000   0.000   0.000
  5        0.000   0.000   0.000   0.000
  6        0.000  -0.000   0.000   0.000
  7        0.000  -0.000   0.000   0.000
  8        0.000  -0.000   0.000   0.000
  9        0.000   0.000   0.000   0.000
 10        0.000   0.000  -0.000   0.000
 11        0.000   0.000  -0.000   0.000
 12        0.000   0.000  -0.000   0.000
------------------------------------------------
tot        0.000  -0.000   0.000   0.000
 

 total amount of memory used by VASP on root node  2517858. kBytes
========================================================================

   base      :      30000. kBytes
   nonl-proj :    1591607. kBytes
   fftplans  :       3356. kBytes
   grid      :      24772. kBytes
   one-center:        746. kBytes
   HF        :        324. kBytes
   nonlr-proj:       2906. kBytes
   wavefun   :     864147. kBytes
 
  
  
 General timing and accounting informations for this job:
 ========================================================
  
                  Total CPU time used (sec):    38001.242
                            User time (sec):    37854.186
                          System time (sec):      147.057
                         Elapsed time (sec):    38079.880
  
                   Maximum memory used (kb):     2477288.
                   Average memory used (kb):           0.
  
                          Minor page faults:     30598713
                          Major page faults:            0
                 Voluntary context switches:         2770
