 vasp.5.4.1 24Jun15 (build Nov 25 2015 16:01:35) complex                        
  
 executed on         CrayXC-Intel date 2016.05.09  11:24:35
 running on  384 total cores
 distrk:  each k-point on   24 cores,   16 groups
 distr:  one band on NCORES_PER_BAND=   6 cores,    4 groups


--------------------------------------------------------------------------------------------------------


 INCAR:
 POTCAR:    PAW_PBE C 08Apr2002                   
 POTCAR:    PAW_PBE N 08Apr2002                   
 POTCAR:    PAW_PBE H 15Jun2001                   
 POTCAR:    PAW_PBE Pb_d 06Sep2000                
 POTCAR:    PAW_PBE I 08Apr2002                   

 ----------------------------------------------------------------------------- 
|                                                                             |
|           W    W    AA    RRRRR   N    N  II  N    N   GGGG   !!!           |
|           W    W   A  A   R    R  NN   N  II  NN   N  G    G  !!!           |
|           W    W  A    A  R    R  N N  N  II  N N  N  G       !!!           |
|           W WW W  AAAAAA  RRRRR   N  N N  II  N  N N  G  GGG   !            |
|           WW  WW  A    A  R   R   N   NN  II  N   NN  G    G                |
|           W    W  A    A  R    R  N    N  II  N    N   GGGG   !!!           |
|                                                                             |
|      For optimal performance we recommend to set                            |
|        NCORE= 4 - approx SQRT( number of cores)                             |
|      NCORE specifies how many cores store one orbital (NPAR=cpu/NCORE).     |
|      This setting can  greatly improve the performance of VASP for DFT.     |
|      The default, NPAR=number of cores might be grossly inefficient         |
|      on modern multi-core architectures or massively parallel machines.     |
|      Do your own testing !!!!                                               |
|      Unfortunately you need to use the default for GW and RPA calculations. |
|      (for HF NCORE is supported but not extensively tested yet)             |
|                                                                             |
 ----------------------------------------------------------------------------- 


 ----------------------------------------------------------------------------- 
|                                                                             |
|           W    W    AA    RRRRR   N    N  II  N    N   GGGG   !!!           |
|           W    W   A  A   R    R  NN   N  II  NN   N  G    G  !!!           |
|           W    W  A    A  R    R  N N  N  II  N N  N  G       !!!           |
|           W WW W  AAAAAA  RRRRR   N  N N  II  N  N N  G  GGG   !            |
|           WW  WW  A    A  R   R   N   NN  II  N   NN  G    G                |
|           W    W  A    A  R    R  N    N  II  N    N   GGGG   !!!           |
|                                                                             |
|      You have enabled k-point parallelism (KPAR>1).                         |
|      This developmental code was originally  written by Paul Kent at ORNL,  |
|      and carefully double checked in Vienna.                                |
|      GW as well as linear response parallelism added by Martijn Marsman     |
|      and Georg Kresse.                                                      |
|      Carefully verify results versus KPAR=1.                                |
|      Report problems to Paul Kent and Vienna.                               |
|                                                                             |
 ----------------------------------------------------------------------------- 


 ----------------------------------------------------------------------------- 
|                                                                             |
|           W    W    AA    RRRRR   N    N  II  N    N   GGGG   !!!           |
|           W    W   A  A   R    R  NN   N  II  NN   N  G    G  !!!           |
|           W    W  A    A  R    R  N N  N  II  N N  N  G       !!!           |
|           W WW W  AAAAAA  RRRRR   N  N N  II  N  N N  G  GGG   !            |
|           WW  WW  A    A  R   R   N   NN  II  N   NN  G    G                |
|           W    W  A    A  R    R  N    N  II  N    N   GGGG   !!!           |
|                                                                             |
|      You have selected ISYM=2 for HF type calculation. This will symmetrize |
|      the charge density but not the exchange potential.                     |
|      I suggest to use ISYM=3 instead. This uses symmetry to obtain          |
|      the orbitals at all k-points in the Brillouine zone, but does not      |
|      apply symmetry to the Hartree potential directly.                      |
|      The resultant charge might have lower symmetry than the crystal,       |
|      but at least, Hartree and exchange are fully compatible.               |
|                                                                             |
 ----------------------------------------------------------------------------- 

 POTCAR:    PAW_PBE C 08Apr2002                   
   VRHFIN =C: s2p2                                                              
   LEXCH  = PE                                                                  
   EATOM  =   147.1560 eV,   10.8157 Ry                                         
                                                                                
   TITEL  = PAW_PBE C 08Apr2002                                                 
   LULTRA =        F    use ultrasoft PP ?                                      
   IUNSCR =        1    unscreen: 0-lin 1-nonlin 2-no                           
   RPACOR =    1.200    partial core radius                                     
   POMASS =   12.011; ZVAL   =    4.000    mass and valenz                      
   RCORE  =    1.500    outmost cutoff radius                                   
   RWIGS  =    1.630; RWIGS  =    0.863    wigner-seitz radius (au A)           
   ENMAX  =  400.000; ENMIN  =  300.000 eV                                      
   ICORE  =        2    local potential                                         
   LCOR   =        T    correct aug charges                                     
   LPAW   =        T    paw PP                                                  
   EAUG   =  644.873                                                            
   DEXC   =    0.000                                                            
   RMAX   =    1.529    core radius for proj-oper                               
   RAUG   =    1.300    factor for augmentation sphere                          
   RDEP   =    1.501    radius for radial grids                                 
   RDEPT  =    1.300    core radius for aug-charge                              
                                                                                
   Atomic configuration                                                         
    4 entries                                                                   
     n  l   j            E        occ.                                          
     1  0  0.50      -273.3789   2.0000                                         
     2  0  0.50       -13.7508   2.0000                                         
     2  1  0.50        -5.2854   2.0000                                         
     3  2  1.50        -5.4423   0.0000                                         
   Description                                                                  
     l       E           TYP  RCUT    TYP  RCUT                                 
     0    -13.7508458     23  1.200                                             
     0     -8.2022199     23  1.200                                             
     1     -5.2854383     23  1.500                                             
     1     34.0145650     23  1.500                                             
     2     -5.4423304      7  1.500                                             
  local pseudopotential read in
  partial core-charges read in
  partial kinetic energy density read in
  atomic valenz-charges read in
  non local Contribution for L=           0  read in
    real space projection operators read in
  non local Contribution for L=           0  read in
    real space projection operators read in
  non local Contribution for L=           1  read in
    real space projection operators read in
  non local Contribution for L=           1  read in
    real space projection operators read in
    PAW grid and wavefunctions read in
 
   number of l-projection  operators is LMAX  =           4
   number of lm-projection operators is LMMAX =           8
 
 POTCAR:    PAW_PBE N 08Apr2002                   
   VRHFIN =N: s2p3                                                              
   LEXCH  = PE                                                                  
   EATOM  =   264.5486 eV,   19.4438 Ry                                         
                                                                                
   TITEL  = PAW_PBE N 08Apr2002                                                 
   LULTRA =        F    use ultrasoft PP ?                                      
   IUNSCR =        1    unscreen: 0-lin 1-nonlin 2-no                           
   RPACOR =    1.200    partial core radius                                     
   POMASS =   14.001; ZVAL   =    5.000    mass and valenz                      
   RCORE  =    1.500    outmost cutoff radius                                   
   RWIGS  =    1.400; RWIGS  =    0.741    wigner-seitz radius (au A)           
   ENMAX  =  400.000; ENMIN  =  300.000 eV                                      
   ICORE  =        2    local potential                                         
   LCOR   =        T    correct aug charges                                     
   LPAW   =        T    paw PP                                                  
   EAUG   =  627.112                                                            
   DEXC   =    0.000                                                            
   RMAX   =    1.529    core radius for proj-oper                               
   RAUG   =    1.300    factor for augmentation sphere                          
   RDEP   =    1.514    radius for radial grids                                 
   RDEPT  =    1.338    core radius for aug-charge                              
                                                                                
   Atomic configuration                                                         
    4 entries                                                                   
     n  l   j            E        occ.                                          
     1  0  0.50      -384.7179   2.0000                                         
     2  0  0.50       -18.5828   2.0000                                         
     2  1  0.50        -7.0898   3.0000                                         
     3  2  1.50        -6.8029   0.0000                                         
   Description                                                                  
     l       E           TYP  RCUT    TYP  RCUT                                 
     0    -18.5828119     23  1.200                                             
     0    -13.5018863     23  1.200                                             
     1     -7.0897853     23  1.500                                             
     1      9.5240782     23  1.500                                             
     2     -6.8029130      7  1.500                                             
  local pseudopotential read in
  partial core-charges read in
  partial kinetic energy density read in
  atomic valenz-charges read in
  non local Contribution for L=           0  read in
    real space projection operators read in
  non local Contribution for L=           0  read in
    real space projection operators read in
  non local Contribution for L=           1  read in
    real space projection operators read in
  non local Contribution for L=           1  read in
    real space projection operators read in
    PAW grid and wavefunctions read in
 
   number of l-projection  operators is LMAX  =           4
   number of lm-projection operators is LMMAX =           8
 
 POTCAR:    PAW_PBE H 15Jun2001                   
   VRHFIN =H: ultrasoft test                                                    
   LEXCH  = PE                                                                  
   EATOM  =    12.4884 eV,    0.9179 Ry                                         
                                                                                
   TITEL  = PAW_PBE H 15Jun2001                                                 
   LULTRA =        F    use ultrasoft PP ?                                      
   IUNSCR =        0    unscreen: 0-lin 1-nonlin 2-no                           
   RPACOR =    0.000    partial core radius                                     
   POMASS =    1.000; ZVAL   =    1.000    mass and valenz                      
   RCORE  =    1.100    outmost cutoff radius                                   
   RWIGS  =    0.700; RWIGS  =    0.370    wigner-seitz radius (au A)           
   ENMAX  =  250.000; ENMIN  =  200.000 eV                                      
   RCLOC  =    0.701    cutoff for local pot                                    
   LCOR   =        T    correct aug charges                                     
   LPAW   =        T    paw PP                                                  
   EAUG   =  400.000                                                            
   RMAX   =    1.123    core radius for proj-oper                               
   RAUG   =    1.200    factor for augmentation sphere                          
   RDEP   =    1.112    radius for radial grids                                 
   RDEPT  =    0.926    core radius for aug-charge                              
                                                                                
   Atomic configuration                                                         
    2 entries                                                                   
     n  l   j            E        occ.                                          
     1  0  0.50        -6.4927   1.0000                                         
     2  1  0.50        -3.4015   0.0000                                         
   Description                                                                  
     l       E           TYP  RCUT    TYP  RCUT                                 
     0     -6.4927494     23  1.100                                             
     0      6.8029130     23  1.100                                             
     1     -4.0817478     23  1.100                                             
  local pseudopotential read in
  atomic valenz-charges read in
  non local Contribution for L=           0  read in
    real space projection operators read in
  non local Contribution for L=           0  read in
    real space projection operators read in
  non local Contribution for L=           1  read in
    real space projection operators read in
    PAW grid and wavefunctions read in
 
   number of l-projection  operators is LMAX  =           3
   number of lm-projection operators is LMMAX =           5
 
 POTCAR:    PAW_PBE Pb_d 06Sep2000                
   VRHFIN =Pb:                                                                  
   LEXCH  = PE                                                                  
   EATOM  =  1661.6185 eV,  122.1255 Ry                                         
                                                                                
   TITEL  = PAW_PBE Pb_d 06Sep2000                                              
   LULTRA =        F    use ultrasoft PP ?                                      
   IUNSCR =        1    unscreen: 0-lin 1-nonlin 2-no                           
   RPACOR =    2.200    partial core radius                                     
   POMASS =  207.200; ZVAL   =   14.000    mass and valenz                      
   RCORE  =    2.500    outmost cutoff radius                                   
   RWIGS  =    3.260; RWIGS  =    1.725    wigner-seitz radius (au A)           
   ENMAX  =  237.835; ENMIN  =  178.376 eV                                      
   ICORE  =        3    local potential                                         
   LCOR   =        T    correct aug charges                                     
   LPAW   =        T    paw PP                                                  
   EAUG   =  391.914                                                            
   DEXC   =    0.000                                                            
   RMAX   =    2.565    core radius for proj-oper                               
   RAUG   =    1.300    factor for augmentation sphere                          
   RDEP   =    2.643    radius for radial grids                                 
   RDEPT  =    2.092    core radius for aug-charge                              
                                                                                
   Atomic configuration                                                         
   16 entries                                                                   
     n  l   j            E        occ.                                          
     1  0  0.50    -88091.8466   2.0000                                         
     2  0  0.50    -15753.4197   2.0000                                         
     2  1  1.50    -13508.1797   6.0000                                         
     3  0  0.50     -3781.7194   2.0000                                         
     3  1  1.50     -3138.2529   6.0000                                         
     3  2  2.50     -2483.2977  10.0000                                         
     4  0  0.50      -856.2895   2.0000                                         
     4  1  1.50      -645.4942   6.0000                                         
     4  2  2.50      -401.8768  10.0000                                         
     4  3  3.50      -132.9059  14.0000                                         
     5  0  0.50      -144.0950   2.0000                                         
     5  1  1.50       -85.7879   6.0000                                         
     5  2  2.50       -21.1769  10.0000                                         
     6  0  0.50       -12.0372   2.0000                                         
     6  1  1.50        -3.4971   2.0000                                         
     5  3  2.50        -2.7212   0.0000                                         
   Description                                                                  
     l       E           TYP  RCUT    TYP  RCUT                                 
     2    -21.1768523     23  2.500                                             
     2      1.3605826     23  2.500                                             
     0    -12.0371562     23  2.500                                             
     0     13.6058260     23  2.500                                             
     1     -3.4971339     23  2.500                                             
     1     13.6058260     23  2.500                                             
     3     -1.3605826      7  2.500                                             
  local pseudopotential read in
  partial core-charges read in
  partial kinetic energy density read in
  atomic valenz-charges read in
  non local Contribution for L=           2  read in
    real space projection operators read in
  non local Contribution for L=           2  read in
    real space projection operators read in
  non local Contribution for L=           0  read in
    real space projection operators read in
  non local Contribution for L=           0  read in
    real space projection operators read in
  non local Contribution for L=           1  read in
    real space projection operators read in
  non local Contribution for L=           1  read in
    real space projection operators read in
    PAW grid and wavefunctions read in
 
   number of l-projection  operators is LMAX  =           6
   number of lm-projection operators is LMMAX =          18
 
 POTCAR:    PAW_PBE I 08Apr2002                   
   VRHFIN =I : s2p5                                                             
   LEXCH  = PE                                                                  
   EATOM  =   315.8678 eV,   23.2156 Ry                                         
                                                                                
   TITEL  = PAW_PBE I 08Apr2002                                                 
   LULTRA =        F    use ultrasoft PP ?                                      
   IUNSCR =        1    unscreen: 0-lin 1-nonlin 2-no                           
   RPACOR =    2.200    partial core radius                                     
   POMASS =  126.904; ZVAL   =    7.000    mass and valenz                      
   RCORE  =    2.300    outmost cutoff radius                                   
   RWIGS  =    2.810; RWIGS  =    1.487    wigner-seitz radius (au A)           
   ENMAX  =  175.647; ENMIN  =  131.735 eV                                      
   ICORE  =        3    local potential                                         
   LCOR   =        T    correct aug charges                                     
   LPAW   =        T    paw PP                                                  
   EAUG   =  370.139                                                            
   DEXC   =    0.000                                                            
   RMAX   =    2.359    core radius for proj-oper                               
   RAUG   =    1.300    factor for augmentation sphere                          
   RDEP   =    2.392    radius for radial grids                                 
   RDEPT  =    2.170    core radius for aug-charge                              
                                                                                
   Atomic configuration                                                         
   13 entries                                                                   
     n  l   j            E        occ.                                          
     1  0  0.50    -32976.3739   2.0000                                         
     2  0  0.50     -5094.5933   2.0000                                         
     2  1  1.50     -4572.0131   6.0000                                         
     3  0  0.50     -1028.2813   2.0000                                         
     3  1  1.50      -859.0250   6.0000                                         
     3  2  2.50      -605.7620  10.0000                                         
     4  0  0.50      -180.5540   2.0000                                         
     4  1  1.50      -127.5306   6.0000                                         
     4  2  2.50       -50.2720  10.0000                                         
     5  0  0.50       -17.4058   2.0000                                         
     5  1  0.50        -7.0851   5.0000                                         
     5  2  1.50        -7.0750   0.0000                                         
     4  3  2.50        -7.0750   0.0000                                         
   Description                                                                  
     l       E           TYP  RCUT    TYP  RCUT                                 
     0    -17.4058016     23  2.300                                             
     0    -18.7663842     23  2.300                                             
     1     -7.0850686     23  2.300                                             
     1     -4.2150896     23  2.300                                             
     2     -7.0750295     23  2.300                                             
     3     -1.3605826     23  2.300                                             
  local pseudopotential read in
  partial core-charges read in
  partial kinetic energy density read in
  atomic valenz-charges read in
  non local Contribution for L=           0  read in
    real space projection operators read in
  non local Contribution for L=           0  read in
    real space projection operators read in
  non local Contribution for L=           1  read in
    real space projection operators read in
  non local Contribution for L=           1  read in
    real space projection operators read in
  non local Contribution for L=           2  read in
    real space projection operators read in
    PAW grid and wavefunctions read in
 
   number of l-projection  operators is LMAX  =           5
   number of lm-projection operators is LMMAX =          13
 
  PAW_PBE C 08Apr2002                   :
 energy of atom  1       EATOM= -147.1560
 kinetic energy error for atom=    0.0076 (will be added to EATOM!!)
  PAW_PBE N 08Apr2002                   :
 energy of atom  2       EATOM= -264.5486
 kinetic energy error for atom=    0.0138 (will be added to EATOM!!)
  PAW_PBE H 15Jun2001                   :
 energy of atom  3       EATOM=  -12.4884
 kinetic energy error for atom=    0.0020 (will be added to EATOM!!)
  PAW_PBE Pb_d 06Sep2000                :
 energy of atom  4       EATOM=-1661.6185
 kinetic energy error for atom=    0.0047 (will be added to EATOM!!)
  PAW_PBE I 08Apr2002                   :
 energy of atom  5       EATOM= -315.8678
 kinetic energy error for atom=    0.0009 (will be added to EATOM!!)
 
 
 POSCAR: MA-Pb-I (Github)                        
  positions in direct lattice
  velocities in cartesian coordinates
 exchange correlation table for  LEXCH =        8
   RHO(1)=    0.500       N(1)  =     2000
   RHO(2)=  100.500       N(2)  =     4000
 


--------------------------------------------------------------------------------------------------------


 ion  position               nearest neighbor table
   1  0.903  1.000  0.996-   3 1.10   5 1.10   4 1.10   2 1.48
   2  0.137  1.000  0.025-   6 1.04   7 1.04   8 1.05   1 1.48
   3  0.865  1.000  0.826-   1 1.10
   4  0.838  0.144  0.072-   1 1.10
   5  0.838  0.857  0.072-   1 1.10
   6  0.208  0.134  0.958-   2 1.04
   7  0.207  0.865  0.958-   2 1.04
   8  0.182  0.000  0.185-   2 1.05
   9  0.476  0.500  0.476-  12 3.07  10 3.15  11 3.15  11 3.15  10 3.18  12 3.23
  10  0.427  0.500  0.973-   9 3.15   9 3.18
  11  0.436  0.000  0.507-   9 3.15   9 3.15
  12  0.963  0.500  0.448-   9 3.07   9 3.23
 
  LATTYP: Found a simple monoclinic cell.
 ALAT       =     6.2901201248
 B/A-ratio  =     0.9974197462
 C/A-ratio  =     1.4105278383
 COS(beta)  =    -0.7044835581
  
  Lattice vectors:
  
 A1 = (  -6.2901201248,   0.0000000000,   0.0000000000)
 A2 = (  -0.0000776940,  -6.2738900180,   0.0000000000)
 A3 = (   6.2504525538,  -0.0001537931,   6.2969150416)


Analysis of symmetry for initial positions (statically):
=====================================================================
 Subroutine PRICEL returns:
 Original cell was already a primitive cell.
 

 Routine SETGRP: Setting up the symmetry group for a 
 simple monoclinic supercell.


 Subroutine GETGRP returns: Found  1 space group operations
 (whereof  1 operations were pure point group operations)
 out of a pool of  4 trial point group operations.


The static configuration has the point symmetry C_1 .


Analysis of symmetry for dynamics (positions and initial velocities):
=====================================================================
 Subroutine PRICEL returns:
 Original cell was already a primitive cell.
 

 Routine SETGRP: Setting up the symmetry group for a 
 simple monoclinic supercell.


 Subroutine GETGRP returns: Found  1 space group operations
 (whereof  1 operations were pure point group operations)
 out of a pool of  4 trial point group operations.


The dynamic configuration has the point symmetry C_1 .


 Subroutine INISYM returns: Found  1 space group operations
 (whereof  1 operations are pure point group operations),
 and found     1 'primitive' translations

 
 
 KPOINTS: Automatically generated mesh. SCF:112, k
  k-points in reciprocal lattice
Space group operators:
 irot       det(A)        alpha          n_x          n_y          n_z        tau_x        tau_y        tau_z
    1     1.000000     0.000000     1.000000     0.000000     0.000000     0.000000     0.000000     0.000000

 ----------------------------------------------------------------------------- 
|                                                                             |
|           W    W    AA    RRRRR   N    N  II  N    N   GGGG   !!!           |
|           W    W   A  A   R    R  NN   N  II  NN   N  G    G  !!!           |
|           W    W  A    A  R    R  N N  N  II  N N  N  G       !!!           |
|           W WW W  AAAAAA  RRRRR   N  N N  II  N  N N  G  GGG   !            |
|           WW  WW  A    A  R   R   N   NN  II  N   NN  G    G                |
|           W    W  A    A  R    R  N    N  II  N    N   GGGG   !!!           |
|                                                                             |
|      Your generating k-point grid is not commensurate to the symmetry       |
|      of the lattice.  This can cause   slow convergence with respect        |
|      to k-points for HF type calculations                                   |
|      suggested SOLUTIONS:                                                   |
|       ) if not already the case, use automatic k-point generation           |
|       ) shift your grid to Gamma (G) (e.g. required for hex or fcc lattice) |
|                                                                             |
 ----------------------------------------------------------------------------- 

 
 Subroutine IBZKPT_HF returns following result:
 ==============================================
 
 Found    732 k-points in 1st BZ
 the following    732 k-points will be used (e.g. in the exchange kernel)
 Following reciprocal coordinates:   # in IRBZ
  0.000000  0.000000  0.000000    0.00462963   1 t-inv F
  0.166667  0.000000  0.000000    0.00462963   2 t-inv F
  0.333333  0.000000  0.000000    0.00462963   3 t-inv F
  0.500000  0.000000  0.000000    0.00462963   4 t-inv F
  0.000000  0.166667  0.000000    0.00462963   5 t-inv F
  0.166667  0.166667  0.000000    0.00462963   6 t-inv F
  0.333333  0.166667  0.000000    0.00462963   7 t-inv F
  0.500000  0.166667  0.000000    0.00462963   8 t-inv F
 -0.333333  0.166667  0.000000    0.00462963   9 t-inv F
 -0.166667  0.166667  0.000000    0.00462963  10 t-inv F
  0.000000  0.333333  0.000000    0.00462963  11 t-inv F
  0.166667  0.333333  0.000000    0.00462963  12 t-inv F
  0.333333  0.333333  0.000000    0.00462963  13 t-inv F
  0.500000  0.333333  0.000000    0.00462963  14 t-inv F
 -0.333333  0.333333  0.000000    0.00462963  15 t-inv F
 -0.166667  0.333333  0.000000    0.00462963  16 t-inv F
  0.000000  0.500000  0.000000    0.00462963  17 t-inv F
  0.166667  0.500000  0.000000    0.00462963  18 t-inv F
  0.333333  0.500000  0.000000    0.00462963  19 t-inv F
  0.500000  0.500000  0.000000    0.00462963  20 t-inv F
  0.000000  0.000000  0.166667    0.00462963  21 t-inv F
  0.166667  0.000000  0.166667    0.00462963  22 t-inv F
  0.333333  0.000000  0.166667    0.00462963  23 t-inv F
  0.500000  0.000000  0.166667    0.00462963  24 t-inv F
 -0.333333  0.000000  0.166667    0.00462963  25 t-inv F
 -0.166667  0.000000  0.166667    0.00462963  26 t-inv F
  0.000000  0.166667  0.166667    0.00462963  27 t-inv F
  0.166667  0.166667  0.166667    0.00462963  28 t-inv F
  0.333333  0.166667  0.166667    0.00462963  29 t-inv F
  0.500000  0.166667  0.166667    0.00462963  30 t-inv F
 -0.333333  0.166667  0.166667    0.00462963  31 t-inv F
 -0.166667  0.166667  0.166667    0.00462963  32 t-inv F
  0.000000  0.333333  0.166667    0.00462963  33 t-inv F
  0.166667  0.333333  0.166667    0.00462963  34 t-inv F
  0.333333  0.333333  0.166667    0.00462963  35 t-inv F
  0.500000  0.333333  0.166667    0.00462963  36 t-inv F
 -0.333333  0.333333  0.166667    0.00462963  37 t-inv F
 -0.166667  0.333333  0.166667    0.00462963  38 t-inv F
  0.000000  0.500000  0.166667    0.00462963  39 t-inv F
  0.166667  0.500000  0.166667    0.00462963  40 t-inv F
  0.333333  0.500000  0.166667    0.00462963  41 t-inv F
  0.500000  0.500000  0.166667    0.00462963  42 t-inv F
 -0.333333  0.500000  0.166667    0.00462963  43 t-inv F
 -0.166667  0.500000  0.166667    0.00462963  44 t-inv F
  0.000000 -0.333333  0.166667    0.00462963  45 t-inv F
  0.166667 -0.333333  0.166667    0.00462963  46 t-inv F
  0.333333 -0.333333  0.166667    0.00462963  47 t-inv F
  0.500000 -0.333333  0.166667    0.00462963  48 t-inv F
 -0.333333 -0.333333  0.166667    0.00462963  49 t-inv F
 -0.166667 -0.333333  0.166667    0.00462963  50 t-inv F
  0.000000 -0.166667  0.166667    0.00462963  51 t-inv F
  0.166667 -0.166667  0.166667    0.00462963  52 t-inv F
  0.333333 -0.166667  0.166667    0.00462963  53 t-inv F
  0.500000 -0.166667  0.166667    0.00462963  54 t-inv F
 -0.333333 -0.166667  0.166667    0.00462963  55 t-inv F
 -0.166667 -0.166667  0.166667    0.00462963  56 t-inv F
  0.000000  0.000000  0.333333    0.00462963  57 t-inv F
  0.166667  0.000000  0.333333    0.00462963  58 t-inv F
  0.333333  0.000000  0.333333    0.00462963  59 t-inv F
  0.500000  0.000000  0.333333    0.00462963  60 t-inv F
 -0.333333  0.000000  0.333333    0.00462963  61 t-inv F
 -0.166667  0.000000  0.333333    0.00462963  62 t-inv F
  0.000000  0.166667  0.333333    0.00462963  63 t-inv F
  0.166667  0.166667  0.333333    0.00462963  64 t-inv F
  0.333333  0.166667  0.333333    0.00462963  65 t-inv F
  0.500000  0.166667  0.333333    0.00462963  66 t-inv F
 -0.333333  0.166667  0.333333    0.00462963  67 t-inv F
 -0.166667  0.166667  0.333333    0.00462963  68 t-inv F
  0.000000  0.333333  0.333333    0.00462963  69 t-inv F
  0.166667  0.333333  0.333333    0.00462963  70 t-inv F
  0.333333  0.333333  0.333333    0.00462963  71 t-inv F
  0.500000  0.333333  0.333333    0.00462963  72 t-inv F
 -0.333333  0.333333  0.333333    0.00462963  73 t-inv F
 -0.166667  0.333333  0.333333    0.00462963  74 t-inv F
  0.000000  0.500000  0.333333    0.00462963  75 t-inv F
  0.166667  0.500000  0.333333    0.00462963  76 t-inv F
  0.333333  0.500000  0.333333    0.00462963  77 t-inv F
  0.500000  0.500000  0.333333    0.00462963  78 t-inv F
 -0.333333  0.500000  0.333333    0.00462963  79 t-inv F
 -0.166667  0.500000  0.333333    0.00462963  80 t-inv F
  0.000000 -0.333333  0.333333    0.00462963  81 t-inv F
  0.166667 -0.333333  0.333333    0.00462963  82 t-inv F
  0.333333 -0.333333  0.333333    0.00462963  83 t-inv F
  0.500000 -0.333333  0.333333    0.00462963  84 t-inv F
 -0.333333 -0.333333  0.333333    0.00462963  85 t-inv F
 -0.166667 -0.333333  0.333333    0.00462963  86 t-inv F
  0.000000 -0.166667  0.333333    0.00462963  87 t-inv F
  0.166667 -0.166667  0.333333    0.00462963  88 t-inv F
  0.333333 -0.166667  0.333333    0.00462963  89 t-inv F
  0.500000 -0.166667  0.333333    0.00462963  90 t-inv F
 -0.333333 -0.166667  0.333333    0.00462963  91 t-inv F
 -0.166667 -0.166667  0.333333    0.00462963  92 t-inv F
  0.000000  0.000000  0.500000    0.00462963  93 t-inv F
  0.166667  0.000000  0.500000    0.00462963  94 t-inv F
  0.333333  0.000000  0.500000    0.00462963  95 t-inv F
  0.500000  0.000000  0.500000    0.00462963  96 t-inv F
  0.000000  0.166667  0.500000    0.00462963  97 t-inv F
  0.166667  0.166667  0.500000    0.00462963  98 t-inv F
  0.333333  0.166667  0.500000    0.00462963  99 t-inv F
  0.500000  0.166667  0.500000    0.00462963 100 t-inv F
 -0.333333  0.166667  0.500000    0.00462963 101 t-inv F
 -0.166667  0.166667  0.500000    0.00462963 102 t-inv F
  0.000000  0.333333  0.500000    0.00462963 103 t-inv F
  0.166667  0.333333  0.500000    0.00462963 104 t-inv F
  0.333333  0.333333  0.500000    0.00462963 105 t-inv F
  0.500000  0.333333  0.500000    0.00462963 106 t-inv F
 -0.333333  0.333333  0.500000    0.00462963 107 t-inv F
 -0.166667  0.333333  0.500000    0.00462963 108 t-inv F
  0.000000  0.500000  0.500000    0.00462963 109 t-inv F
  0.166667  0.500000  0.500000    0.00462963 110 t-inv F
  0.333333  0.500000  0.500000    0.00462963 111 t-inv F
  0.500000  0.500000  0.500000    0.00462963 112 t-inv F
  0.000000  0.000000  0.000000    0.00000000 113 t-inv F
  0.002874  0.002874  0.002874    0.00000000 114 t-inv F
  0.005747  0.005747  0.005747    0.00000000 115 t-inv F
  0.008621  0.008621  0.008621    0.00000000 116 t-inv F
  0.011494  0.011494  0.011494    0.00000000 117 t-inv F
  0.014368  0.014368  0.014368    0.00000000 118 t-inv F
  0.017241  0.017241  0.017241    0.00000000 119 t-inv F
  0.020115  0.020115  0.020115    0.00000000 120 t-inv F
  0.022989  0.022989  0.022989    0.00000000 121 t-inv F
  0.025862  0.025862  0.025862    0.00000000 122 t-inv F
  0.028736  0.028736  0.028736    0.00000000 123 t-inv F
  0.031609  0.031609  0.031609    0.00000000 124 t-inv F
  0.034483  0.034483  0.034483    0.00000000 125 t-inv F
  0.037356  0.037356  0.037356    0.00000000 126 t-inv F
  0.040230  0.040230  0.040230    0.00000000 127 t-inv F
  0.043103  0.043103  0.043103    0.00000000 128 t-inv F
  0.045977  0.045977  0.045977    0.00000000 129 t-inv F
  0.048851  0.048851  0.048851    0.00000000 130 t-inv F
  0.051724  0.051724  0.051724    0.00000000 131 t-inv F
  0.054598  0.054598  0.054598    0.00000000 132 t-inv F
  0.057471  0.057471  0.057471    0.00000000 133 t-inv F
  0.060345  0.060345  0.060345    0.00000000 134 t-inv F
  0.063218  0.063218  0.063218    0.00000000 135 t-inv F
  0.066092  0.066092  0.066092    0.00000000 136 t-inv F
  0.068966  0.068966  0.068966    0.00000000 137 t-inv F
  0.071839  0.071839  0.071839    0.00000000 138 t-inv F
  0.074713  0.074713  0.074713    0.00000000 139 t-inv F
  0.077586  0.077586  0.077586    0.00000000 140 t-inv F
  0.080460  0.080460  0.080460    0.00000000 141 t-inv F
  0.083333  0.083333  0.083333    0.00000000 142 t-inv F
  0.086207  0.086207  0.086207    0.00000000 143 t-inv F
  0.089080  0.089080  0.089080    0.00000000 144 t-inv F
  0.091954  0.091954  0.091954    0.00000000 145 t-inv F
  0.094828  0.094828  0.094828    0.00000000 146 t-inv F
  0.097701  0.097701  0.097701    0.00000000 147 t-inv F
  0.100575  0.100575  0.100575    0.00000000 148 t-inv F
  0.103448  0.103448  0.103448    0.00000000 149 t-inv F
  0.106322  0.106322  0.106322    0.00000000 150 t-inv F
  0.109195  0.109195  0.109195    0.00000000 151 t-inv F
  0.112069  0.112069  0.112069    0.00000000 152 t-inv F
  0.114943  0.114943  0.114943    0.00000000 153 t-inv F
  0.117816  0.117816  0.117816    0.00000000 154 t-inv F
  0.120690  0.120690  0.120690    0.00000000 155 t-inv F
  0.123563  0.123563  0.123563    0.00000000 156 t-inv F
  0.126437  0.126437  0.126437    0.00000000 157 t-inv F
  0.129310  0.129310  0.129310    0.00000000 158 t-inv F
  0.132184  0.132184  0.132184    0.00000000 159 t-inv F
  0.135057  0.135057  0.135057    0.00000000 160 t-inv F
  0.137931  0.137931  0.137931    0.00000000 161 t-inv F
  0.140805  0.140805  0.140805    0.00000000 162 t-inv F
  0.143678  0.143678  0.143678    0.00000000 163 t-inv F
  0.146552  0.146552  0.146552    0.00000000 164 t-inv F
  0.149425  0.149425  0.149425    0.00000000 165 t-inv F
  0.152299  0.152299  0.152299    0.00000000 166 t-inv F
  0.155172  0.155172  0.155172    0.00000000 167 t-inv F
  0.158046  0.158046  0.158046    0.00000000 168 t-inv F
  0.160920  0.160920  0.160920    0.00000000 169 t-inv F
  0.163793  0.163793  0.163793    0.00000000 170 t-inv F
  0.166667  0.166667  0.166667    0.00000000 171 t-inv F
  0.169540  0.169540  0.169540    0.00000000 172 t-inv F
  0.172414  0.172414  0.172414    0.00000000 173 t-inv F
  0.175287  0.175287  0.175287    0.00000000 174 t-inv F
  0.178161  0.178161  0.178161    0.00000000 175 t-inv F
  0.181034  0.181034  0.181034    0.00000000 176 t-inv F
  0.183908  0.183908  0.183908    0.00000000 177 t-inv F
  0.186782  0.186782  0.186782    0.00000000 178 t-inv F
  0.189655  0.189655  0.189655    0.00000000 179 t-inv F
  0.192529  0.192529  0.192529    0.00000000 180 t-inv F
  0.195402  0.195402  0.195402    0.00000000 181 t-inv F
  0.198276  0.198276  0.198276    0.00000000 182 t-inv F
  0.201149  0.201149  0.201149    0.00000000 183 t-inv F
  0.204023  0.204023  0.204023    0.00000000 184 t-inv F
  0.206897  0.206897  0.206897    0.00000000 185 t-inv F
  0.209770  0.209770  0.209770    0.00000000 186 t-inv F
  0.212644  0.212644  0.212644    0.00000000 187 t-inv F
  0.215517  0.215517  0.215517    0.00000000 188 t-inv F
  0.218391  0.218391  0.218391    0.00000000 189 t-inv F
  0.221264  0.221264  0.221264    0.00000000 190 t-inv F
  0.224138  0.224138  0.224138    0.00000000 191 t-inv F
  0.227011  0.227011  0.227011    0.00000000 192 t-inv F
  0.229885  0.229885  0.229885    0.00000000 193 t-inv F
  0.232759  0.232759  0.232759    0.00000000 194 t-inv F
  0.235632  0.235632  0.235632    0.00000000 195 t-inv F
  0.238506  0.238506  0.238506    0.00000000 196 t-inv F
  0.241379  0.241379  0.241379    0.00000000 197 t-inv F
  0.244253  0.244253  0.244253    0.00000000 198 t-inv F
  0.247126  0.247126  0.247126    0.00000000 199 t-inv F
  0.250000  0.250000  0.250000    0.00000000 200 t-inv F
  0.252874  0.252874  0.252874    0.00000000 201 t-inv F
  0.255747  0.255747  0.255747    0.00000000 202 t-inv F
  0.258621  0.258621  0.258621    0.00000000 203 t-inv F
  0.261494  0.261494  0.261494    0.00000000 204 t-inv F
  0.264368  0.264368  0.264368    0.00000000 205 t-inv F
  0.267241  0.267241  0.267241    0.00000000 206 t-inv F
  0.270115  0.270115  0.270115    0.00000000 207 t-inv F
  0.272989  0.272989  0.272989    0.00000000 208 t-inv F
  0.275862  0.275862  0.275862    0.00000000 209 t-inv F
  0.278736  0.278736  0.278736    0.00000000 210 t-inv F
  0.281609  0.281609  0.281609    0.00000000 211 t-inv F
  0.284483  0.284483  0.284483    0.00000000 212 t-inv F
  0.287356  0.287356  0.287356    0.00000000 213 t-inv F
  0.290230  0.290230  0.290230    0.00000000 214 t-inv F
  0.293103  0.293103  0.293103    0.00000000 215 t-inv F
  0.295977  0.295977  0.295977    0.00000000 216 t-inv F
  0.298851  0.298851  0.298851    0.00000000 217 t-inv F
  0.301724  0.301724  0.301724    0.00000000 218 t-inv F
  0.304598  0.304598  0.304598    0.00000000 219 t-inv F
  0.307471  0.307471  0.307471    0.00000000 220 t-inv F
  0.310345  0.310345  0.310345    0.00000000 221 t-inv F
  0.313218  0.313218  0.313218    0.00000000 222 t-inv F
  0.316092  0.316092  0.316092    0.00000000 223 t-inv F
  0.318966  0.318966  0.318966    0.00000000 224 t-inv F
  0.321839  0.321839  0.321839    0.00000000 225 t-inv F
  0.324713  0.324713  0.324713    0.00000000 226 t-inv F
  0.327586  0.327586  0.327586    0.00000000 227 t-inv F
  0.330460  0.330460  0.330460    0.00000000 228 t-inv F
  0.333333  0.333333  0.333333    0.00000000 229 t-inv F
  0.336207  0.336207  0.336207    0.00000000 230 t-inv F
  0.339080  0.339080  0.339080    0.00000000 231 t-inv F
  0.341954  0.341954  0.341954    0.00000000 232 t-inv F
  0.344828  0.344828  0.344828    0.00000000 233 t-inv F
  0.347701  0.347701  0.347701    0.00000000 234 t-inv F
  0.350575  0.350575  0.350575    0.00000000 235 t-inv F
  0.353448  0.353448  0.353448    0.00000000 236 t-inv F
  0.356322  0.356322  0.356322    0.00000000 237 t-inv F
  0.359195  0.359195  0.359195    0.00000000 238 t-inv F
  0.362069  0.362069  0.362069    0.00000000 239 t-inv F
  0.364943  0.364943  0.364943    0.00000000 240 t-inv F
  0.367816  0.367816  0.367816    0.00000000 241 t-inv F
  0.370690  0.370690  0.370690    0.00000000 242 t-inv F
  0.373563  0.373563  0.373563    0.00000000 243 t-inv F
  0.376437  0.376437  0.376437    0.00000000 244 t-inv F
  0.379310  0.379310  0.379310    0.00000000 245 t-inv F
  0.382184  0.382184  0.382184    0.00000000 246 t-inv F
  0.385057  0.385057  0.385057    0.00000000 247 t-inv F
  0.387931  0.387931  0.387931    0.00000000 248 t-inv F
  0.390805  0.390805  0.390805    0.00000000 249 t-inv F
  0.393678  0.393678  0.393678    0.00000000 250 t-inv F
  0.396552  0.396552  0.396552    0.00000000 251 t-inv F
  0.399425  0.399425  0.399425    0.00000000 252 t-inv F
  0.402299  0.402299  0.402299    0.00000000 253 t-inv F
  0.405172  0.405172  0.405172    0.00000000 254 t-inv F
  0.408046  0.408046  0.408046    0.00000000 255 t-inv F
  0.410920  0.410920  0.410920    0.00000000 256 t-inv F
  0.413793  0.413793  0.413793    0.00000000 257 t-inv F
  0.416667  0.416667  0.416667    0.00000000 258 t-inv F
  0.419540  0.419540  0.419540    0.00000000 259 t-inv F
  0.422414  0.422414  0.422414    0.00000000 260 t-inv F
  0.425287  0.425287  0.425287    0.00000000 261 t-inv F
  0.428161  0.428161  0.428161    0.00000000 262 t-inv F
  0.431035  0.431035  0.431035    0.00000000 263 t-inv F
  0.433908  0.433908  0.433908    0.00000000 264 t-inv F
  0.436782  0.436782  0.436782    0.00000000 265 t-inv F
  0.439655  0.439655  0.439655    0.00000000 266 t-inv F
  0.442529  0.442529  0.442529    0.00000000 267 t-inv F
  0.445402  0.445402  0.445402    0.00000000 268 t-inv F
  0.448276  0.448276  0.448276    0.00000000 269 t-inv F
  0.451149  0.451149  0.451149    0.00000000 270 t-inv F
  0.454023  0.454023  0.454023    0.00000000 271 t-inv F
  0.456897  0.456897  0.456897    0.00000000 272 t-inv F
  0.459770  0.459770  0.459770    0.00000000 273 t-inv F
  0.462644  0.462644  0.462644    0.00000000 274 t-inv F
  0.465517  0.465517  0.465517    0.00000000 275 t-inv F
  0.468391  0.468391  0.468391    0.00000000 276 t-inv F
  0.471264  0.471264  0.471264    0.00000000 277 t-inv F
  0.474138  0.474138  0.474138    0.00000000 278 t-inv F
  0.477011  0.477011  0.477011    0.00000000 279 t-inv F
  0.479885  0.479885  0.479885    0.00000000 280 t-inv F
  0.482759  0.482759  0.482759    0.00000000 281 t-inv F
  0.485632  0.485632  0.485632    0.00000000 282 t-inv F
  0.488506  0.488506  0.488506    0.00000000 283 t-inv F
  0.491379  0.491379  0.491379    0.00000000 284 t-inv F
  0.494253  0.494253  0.494253    0.00000000 285 t-inv F
  0.497126  0.497126  0.497126    0.00000000 286 t-inv F
  0.500000  0.500000  0.500000    0.00000000 287 t-inv F
  0.496454  0.500000  0.496454    0.00000000 288 t-inv F
  0.492908  0.500000  0.492908    0.00000000 289 t-inv F
  0.489362  0.500000  0.489362    0.00000000 290 t-inv F
  0.485816  0.500000  0.485816    0.00000000 291 t-inv F
  0.482270  0.500000  0.482270    0.00000000 292 t-inv F
  0.478723  0.500000  0.478723    0.00000000 293 t-inv F
  0.475177  0.500000  0.475177    0.00000000 294 t-inv F
  0.471631  0.500000  0.471631    0.00000000 295 t-inv F
  0.468085  0.500000  0.468085    0.00000000 296 t-inv F
  0.464539  0.500000  0.464539    0.00000000 297 t-inv F
  0.460993  0.500000  0.460993    0.00000000 298 t-inv F
  0.457447  0.500000  0.457447    0.00000000 299 t-inv F
  0.453901  0.500000  0.453901    0.00000000 300 t-inv F
  0.450355  0.500000  0.450355    0.00000000 301 t-inv F
  0.446809  0.500000  0.446809    0.00000000 302 t-inv F
  0.443262  0.500000  0.443262    0.00000000 303 t-inv F
  0.439716  0.500000  0.439716    0.00000000 304 t-inv F
  0.436170  0.500000  0.436170    0.00000000 305 t-inv F
  0.432624  0.500000  0.432624    0.00000000 306 t-inv F
  0.429078  0.500000  0.429078    0.00000000 307 t-inv F
  0.425532  0.500000  0.425532    0.00000000 308 t-inv F
  0.421986  0.500000  0.421986    0.00000000 309 t-inv F
  0.418440  0.500000  0.418440    0.00000000 310 t-inv F
  0.414894  0.500000  0.414894    0.00000000 311 t-inv F
  0.411348  0.500000  0.411348    0.00000000 312 t-inv F
  0.407801  0.500000  0.407801    0.00000000 313 t-inv F
  0.404255  0.500000  0.404255    0.00000000 314 t-inv F
  0.400709  0.500000  0.400709    0.00000000 315 t-inv F
  0.397163  0.500000  0.397163    0.00000000 316 t-inv F
  0.393617  0.500000  0.393617    0.00000000 317 t-inv F
  0.390071  0.500000  0.390071    0.00000000 318 t-inv F
  0.386525  0.500000  0.386525    0.00000000 319 t-inv F
  0.382979  0.500000  0.382979    0.00000000 320 t-inv F
  0.379433  0.500000  0.379433    0.00000000 321 t-inv F
  0.375887  0.500000  0.375887    0.00000000 322 t-inv F
  0.372340  0.500000  0.372340    0.00000000 323 t-inv F
  0.368794  0.500000  0.368794    0.00000000 324 t-inv F
  0.365248  0.500000  0.365248    0.00000000 325 t-inv F
  0.361702  0.500000  0.361702    0.00000000 326 t-inv F
  0.358156  0.500000  0.358156    0.00000000 327 t-inv F
  0.354610  0.500000  0.354610    0.00000000 328 t-inv F
  0.351064  0.500000  0.351064    0.00000000 329 t-inv F
  0.347518  0.500000  0.347518    0.00000000 330 t-inv F
  0.343972  0.500000  0.343972    0.00000000 331 t-inv F
  0.340426  0.500000  0.340426    0.00000000 332 t-inv F
  0.336879  0.500000  0.336879    0.00000000 333 t-inv F
  0.333333  0.500000  0.333333    0.00000000 334 t-inv F
  0.329787  0.500000  0.329787    0.00000000 335 t-inv F
  0.326241  0.500000  0.326241    0.00000000 336 t-inv F
  0.322695  0.500000  0.322695    0.00000000 337 t-inv F
  0.319149  0.500000  0.319149    0.00000000 338 t-inv F
  0.315603  0.500000  0.315603    0.00000000 339 t-inv F
  0.312057  0.500000  0.312057    0.00000000 340 t-inv F
  0.308511  0.500000  0.308511    0.00000000 341 t-inv F
  0.304965  0.500000  0.304965    0.00000000 342 t-inv F
  0.301418  0.500000  0.301418    0.00000000 343 t-inv F
  0.297872  0.500000  0.297872    0.00000000 344 t-inv F
  0.294326  0.500000  0.294326    0.00000000 345 t-inv F
  0.290780  0.500000  0.290780    0.00000000 346 t-inv F
  0.287234  0.500000  0.287234    0.00000000 347 t-inv F
  0.283688  0.500000  0.283688    0.00000000 348 t-inv F
  0.280142  0.500000  0.280142    0.00000000 349 t-inv F
  0.276596  0.500000  0.276596    0.00000000 350 t-inv F
  0.273050  0.500000  0.273050    0.00000000 351 t-inv F
  0.269504  0.500000  0.269504    0.00000000 352 t-inv F
  0.265957  0.500000  0.265957    0.00000000 353 t-inv F
  0.262411  0.500000  0.262411    0.00000000 354 t-inv F
  0.258865  0.500000  0.258865    0.00000000 355 t-inv F
  0.255319  0.500000  0.255319    0.00000000 356 t-inv F
  0.251773  0.500000  0.251773    0.00000000 357 t-inv F
  0.248227  0.500000  0.248227    0.00000000 358 t-inv F
  0.244681  0.500000  0.244681    0.00000000 359 t-inv F
  0.241135  0.500000  0.241135    0.00000000 360 t-inv F
  0.237589  0.500000  0.237589    0.00000000 361 t-inv F
  0.234043  0.500000  0.234043    0.00000000 362 t-inv F
  0.230496  0.500000  0.230496    0.00000000 363 t-inv F
  0.226950  0.500000  0.226950    0.00000000 364 t-inv F
  0.223404  0.500000  0.223404    0.00000000 365 t-inv F
  0.219858  0.500000  0.219858    0.00000000 366 t-inv F
  0.216312  0.500000  0.216312    0.00000000 367 t-inv F
  0.212766  0.500000  0.212766    0.00000000 368 t-inv F
  0.209220  0.500000  0.209220    0.00000000 369 t-inv F
  0.205674  0.500000  0.205674    0.00000000 370 t-inv F
  0.202128  0.500000  0.202128    0.00000000 371 t-inv F
  0.198582  0.500000  0.198582    0.00000000 372 t-inv F
  0.195035  0.500000  0.195035    0.00000000 373 t-inv F
  0.191489  0.500000  0.191489    0.00000000 374 t-inv F
  0.187943  0.500000  0.187943    0.00000000 375 t-inv F
  0.184397  0.500000  0.184397    0.00000000 376 t-inv F
  0.180851  0.500000  0.180851    0.00000000 377 t-inv F
  0.177305  0.500000  0.177305    0.00000000 378 t-inv F
  0.173759  0.500000  0.173759    0.00000000 379 t-inv F
  0.170213  0.500000  0.170213    0.00000000 380 t-inv F
  0.166667  0.500000  0.166667    0.00000000 381 t-inv F
  0.163121  0.500000  0.163121    0.00000000 382 t-inv F
  0.159574  0.500000  0.159574    0.00000000 383 t-inv F
  0.156028  0.500000  0.156028    0.00000000 384 t-inv F
  0.152482  0.500000  0.152482    0.00000000 385 t-inv F
  0.148936  0.500000  0.148936    0.00000000 386 t-inv F
  0.145390  0.500000  0.145390    0.00000000 387 t-inv F
  0.141844  0.500000  0.141844    0.00000000 388 t-inv F
  0.138298  0.500000  0.138298    0.00000000 389 t-inv F
  0.134752  0.500000  0.134752    0.00000000 390 t-inv F
  0.131206  0.500000  0.131206    0.00000000 391 t-inv F
  0.127660  0.500000  0.127660    0.00000000 392 t-inv F
  0.124114  0.500000  0.124114    0.00000000 393 t-inv F
  0.120567  0.500000  0.120567    0.00000000 394 t-inv F
  0.117021  0.500000  0.117021    0.00000000 395 t-inv F
  0.113475  0.500000  0.113475    0.00000000 396 t-inv F
  0.109929  0.500000  0.109929    0.00000000 397 t-inv F
  0.106383  0.500000  0.106383    0.00000000 398 t-inv F
  0.102837  0.500000  0.102837    0.00000000 399 t-inv F
  0.099291  0.500000  0.099291    0.00000000 400 t-inv F
  0.095745  0.500000  0.095745    0.00000000 401 t-inv F
  0.092199  0.500000  0.092199    0.00000000 402 t-inv F
  0.088652  0.500000  0.088652    0.00000000 403 t-inv F
  0.085106  0.500000  0.085106    0.00000000 404 t-inv F
  0.081560  0.500000  0.081560    0.00000000 405 t-inv F
  0.078014  0.500000  0.078014    0.00000000 406 t-inv F
  0.074468  0.500000  0.074468    0.00000000 407 t-inv F
  0.070922  0.500000  0.070922    0.00000000 408 t-inv F
  0.067376  0.500000  0.067376    0.00000000 409 t-inv F
  0.063830  0.500000  0.063830    0.00000000 410 t-inv F
  0.060284  0.500000  0.060284    0.00000000 411 t-inv F
  0.056738  0.500000  0.056738    0.00000000 412 t-inv F
  0.053192  0.500000  0.053192    0.00000000 413 t-inv F
  0.049645  0.500000  0.049645    0.00000000 414 t-inv F
  0.046099  0.500000  0.046099    0.00000000 415 t-inv F
  0.042553  0.500000  0.042553    0.00000000 416 t-inv F
  0.039007  0.500000  0.039007    0.00000000 417 t-inv F
  0.035461  0.500000  0.035461    0.00000000 418 t-inv F
  0.031915  0.500000  0.031915    0.00000000 419 t-inv F
  0.028369  0.500000  0.028369    0.00000000 420 t-inv F
  0.024823  0.500000  0.024823    0.00000000 421 t-inv F
  0.021277  0.500000  0.021277    0.00000000 422 t-inv F
  0.017730  0.500000  0.017730    0.00000000 423 t-inv F
  0.014184  0.500000  0.014184    0.00000000 424 t-inv F
  0.010638  0.500000  0.010638    0.00000000 425 t-inv F
  0.007092  0.500000  0.007092    0.00000000 426 t-inv F
  0.003546  0.500000  0.003546    0.00000000 427 t-inv F
  0.000000  0.500000  0.000000    0.00000000 428 t-inv F
  0.005000  0.500000  0.000000    0.00000000 429 t-inv F
  0.010000  0.500000  0.000000    0.00000000 430 t-inv F
  0.015000  0.500000  0.000000    0.00000000 431 t-inv F
  0.020000  0.500000  0.000000    0.00000000 432 t-inv F
  0.025000  0.500000  0.000000    0.00000000 433 t-inv F
  0.030000  0.500000  0.000000    0.00000000 434 t-inv F
  0.035000  0.500000  0.000000    0.00000000 435 t-inv F
  0.040000  0.500000  0.000000    0.00000000 436 t-inv F
  0.045000  0.500000  0.000000    0.00000000 437 t-inv F
  0.050000  0.500000  0.000000    0.00000000 438 t-inv F
  0.055000  0.500000  0.000000    0.00000000 439 t-inv F
  0.060000  0.500000  0.000000    0.00000000 440 t-inv F
  0.065000  0.500000  0.000000    0.00000000 441 t-inv F
  0.070000  0.500000  0.000000    0.00000000 442 t-inv F
  0.075000  0.500000  0.000000    0.00000000 443 t-inv F
  0.080000  0.500000  0.000000    0.00000000 444 t-inv F
  0.085000  0.500000  0.000000    0.00000000 445 t-inv F
  0.090000  0.500000  0.000000    0.00000000 446 t-inv F
  0.095000  0.500000  0.000000    0.00000000 447 t-inv F
  0.100000  0.500000  0.000000    0.00000000 448 t-inv F
  0.105000  0.500000  0.000000    0.00000000 449 t-inv F
  0.110000  0.500000  0.000000    0.00000000 450 t-inv F
  0.115000  0.500000  0.000000    0.00000000 451 t-inv F
  0.120000  0.500000  0.000000    0.00000000 452 t-inv F
  0.125000  0.500000  0.000000    0.00000000 453 t-inv F
  0.130000  0.500000  0.000000    0.00000000 454 t-inv F
  0.135000  0.500000  0.000000    0.00000000 455 t-inv F
  0.140000  0.500000  0.000000    0.00000000 456 t-inv F
  0.145000  0.500000  0.000000    0.00000000 457 t-inv F
  0.150000  0.500000  0.000000    0.00000000 458 t-inv F
  0.155000  0.500000  0.000000    0.00000000 459 t-inv F
  0.160000  0.500000  0.000000    0.00000000 460 t-inv F
  0.165000  0.500000  0.000000    0.00000000 461 t-inv F
  0.170000  0.500000  0.000000    0.00000000 462 t-inv F
  0.175000  0.500000  0.000000    0.00000000 463 t-inv F
  0.180000  0.500000  0.000000    0.00000000 464 t-inv F
  0.185000  0.500000  0.000000    0.00000000 465 t-inv F
  0.190000  0.500000  0.000000    0.00000000 466 t-inv F
  0.195000  0.500000  0.000000    0.00000000 467 t-inv F
  0.200000  0.500000  0.000000    0.00000000 468 t-inv F
  0.205000  0.500000  0.000000    0.00000000 469 t-inv F
  0.210000  0.500000  0.000000    0.00000000 470 t-inv F
  0.215000  0.500000  0.000000    0.00000000 471 t-inv F
  0.220000  0.500000  0.000000    0.00000000 472 t-inv F
  0.225000  0.500000  0.000000    0.00000000 473 t-inv F
  0.230000  0.500000  0.000000    0.00000000 474 t-inv F
  0.235000  0.500000  0.000000    0.00000000 475 t-inv F
  0.240000  0.500000  0.000000    0.00000000 476 t-inv F
  0.245000  0.500000  0.000000    0.00000000 477 t-inv F
  0.250000  0.500000  0.000000    0.00000000 478 t-inv F
  0.255000  0.500000  0.000000    0.00000000 479 t-inv F
  0.260000  0.500000  0.000000    0.00000000 480 t-inv F
  0.265000  0.500000  0.000000    0.00000000 481 t-inv F
  0.270000  0.500000  0.000000    0.00000000 482 t-inv F
  0.275000  0.500000  0.000000    0.00000000 483 t-inv F
  0.280000  0.500000  0.000000    0.00000000 484 t-inv F
  0.285000  0.500000  0.000000    0.00000000 485 t-inv F
  0.290000  0.500000  0.000000    0.00000000 486 t-inv F
  0.295000  0.500000  0.000000    0.00000000 487 t-inv F
  0.300000  0.500000  0.000000    0.00000000 488 t-inv F
  0.305000  0.500000  0.000000    0.00000000 489 t-inv F
  0.310000  0.500000  0.000000    0.00000000 490 t-inv F
  0.315000  0.500000  0.000000    0.00000000 491 t-inv F
  0.320000  0.500000  0.000000    0.00000000 492 t-inv F
  0.325000  0.500000  0.000000    0.00000000 493 t-inv F
  0.330000  0.500000  0.000000    0.00000000 494 t-inv F
  0.335000  0.500000  0.000000    0.00000000 495 t-inv F
  0.340000  0.500000  0.000000    0.00000000 496 t-inv F
  0.345000  0.500000  0.000000    0.00000000 497 t-inv F
  0.350000  0.500000  0.000000    0.00000000 498 t-inv F
  0.355000  0.500000  0.000000    0.00000000 499 t-inv F
  0.360000  0.500000  0.000000    0.00000000 500 t-inv F
  0.365000  0.500000  0.000000    0.00000000 501 t-inv F
  0.370000  0.500000  0.000000    0.00000000 502 t-inv F
  0.375000  0.500000  0.000000    0.00000000 503 t-inv F
  0.380000  0.500000  0.000000    0.00000000 504 t-inv F
  0.385000  0.500000  0.000000    0.00000000 505 t-inv F
  0.390000  0.500000  0.000000    0.00000000 506 t-inv F
  0.395000  0.500000  0.000000    0.00000000 507 t-inv F
  0.400000  0.500000  0.000000    0.00000000 508 t-inv F
  0.405000  0.500000  0.000000    0.00000000 509 t-inv F
  0.410000  0.500000  0.000000    0.00000000 510 t-inv F
  0.415000  0.500000  0.000000    0.00000000 511 t-inv F
  0.420000  0.500000  0.000000    0.00000000 512 t-inv F
  0.425000  0.500000  0.000000    0.00000000 513 t-inv F
  0.430000  0.500000  0.000000    0.00000000 514 t-inv F
  0.435000  0.500000  0.000000    0.00000000 515 t-inv F
  0.440000  0.500000  0.000000    0.00000000 516 t-inv F
  0.445000  0.500000  0.000000    0.00000000 517 t-inv F
  0.450000  0.500000  0.000000    0.00000000 518 t-inv F
  0.455000  0.500000  0.000000    0.00000000 519 t-inv F
  0.460000  0.500000  0.000000    0.00000000 520 t-inv F
  0.465000  0.500000  0.000000    0.00000000 521 t-inv F
  0.470000  0.500000  0.000000    0.00000000 522 t-inv F
  0.475000  0.500000  0.000000    0.00000000 523 t-inv F
  0.480000  0.500000  0.000000    0.00000000 524 t-inv F
  0.485000  0.500000  0.000000    0.00000000 525 t-inv F
  0.490000  0.500000  0.000000    0.00000000 526 t-inv F
  0.495000  0.500000  0.000000    0.00000000 527 t-inv F
  0.500000  0.500000  0.000000    0.00000000 528 t-inv F
  0.500000  0.500000  0.005000    0.00000000 529 t-inv F
  0.500000  0.500000  0.010000    0.00000000 530 t-inv F
  0.500000  0.500000  0.015000    0.00000000 531 t-inv F
  0.500000  0.500000  0.020000    0.00000000 532 t-inv F
  0.500000  0.500000  0.025000    0.00000000 533 t-inv F
  0.500000  0.500000  0.030000    0.00000000 534 t-inv F
  0.500000  0.500000  0.035000    0.00000000 535 t-inv F
  0.500000  0.500000  0.040000    0.00000000 536 t-inv F
  0.500000  0.500000  0.045000    0.00000000 537 t-inv F
  0.500000  0.500000  0.050000    0.00000000 538 t-inv F
  0.500000  0.500000  0.055000    0.00000000 539 t-inv F
  0.500000  0.500000  0.060000    0.00000000 540 t-inv F
  0.500000  0.500000  0.065000    0.00000000 541 t-inv F
  0.500000  0.500000  0.070000    0.00000000 542 t-inv F
  0.500000  0.500000  0.075000    0.00000000 543 t-inv F
  0.500000  0.500000  0.080000    0.00000000 544 t-inv F
  0.500000  0.500000  0.085000    0.00000000 545 t-inv F
  0.500000  0.500000  0.090000    0.00000000 546 t-inv F
  0.500000  0.500000  0.095000    0.00000000 547 t-inv F
  0.500000  0.500000  0.100000    0.00000000 548 t-inv F
  0.500000  0.500000  0.105000    0.00000000 549 t-inv F
  0.500000  0.500000  0.110000    0.00000000 550 t-inv F
  0.500000  0.500000  0.115000    0.00000000 551 t-inv F
  0.500000  0.500000  0.120000    0.00000000 552 t-inv F
  0.500000  0.500000  0.125000    0.00000000 553 t-inv F
  0.500000  0.500000  0.130000    0.00000000 554 t-inv F
  0.500000  0.500000  0.135000    0.00000000 555 t-inv F
  0.500000  0.500000  0.140000    0.00000000 556 t-inv F
  0.500000  0.500000  0.145000    0.00000000 557 t-inv F
  0.500000  0.500000  0.150000    0.00000000 558 t-inv F
  0.500000  0.500000  0.155000    0.00000000 559 t-inv F
  0.500000  0.500000  0.160000    0.00000000 560 t-inv F
  0.500000  0.500000  0.165000    0.00000000 561 t-inv F
  0.500000  0.500000  0.170000    0.00000000 562 t-inv F
  0.500000  0.500000  0.175000    0.00000000 563 t-inv F
  0.500000  0.500000  0.180000    0.00000000 564 t-inv F
  0.500000  0.500000  0.185000    0.00000000 565 t-inv F
  0.500000  0.500000  0.190000    0.00000000 566 t-inv F
  0.500000  0.500000  0.195000    0.00000000 567 t-inv F
  0.500000  0.500000  0.200000    0.00000000 568 t-inv F
  0.500000  0.500000  0.205000    0.00000000 569 t-inv F
  0.500000  0.500000  0.210000    0.00000000 570 t-inv F
  0.500000  0.500000  0.215000    0.00000000 571 t-inv F
  0.500000  0.500000  0.220000    0.00000000 572 t-inv F
  0.500000  0.500000  0.225000    0.00000000 573 t-inv F
  0.500000  0.500000  0.230000    0.00000000 574 t-inv F
  0.500000  0.500000  0.235000    0.00000000 575 t-inv F
  0.500000  0.500000  0.240000    0.00000000 576 t-inv F
  0.500000  0.500000  0.245000    0.00000000 577 t-inv F
  0.500000  0.500000  0.250000    0.00000000 578 t-inv F
  0.500000  0.500000  0.255000    0.00000000 579 t-inv F
  0.500000  0.500000  0.260000    0.00000000 580 t-inv F
  0.500000  0.500000  0.265000    0.00000000 581 t-inv F
  0.500000  0.500000  0.270000    0.00000000 582 t-inv F
  0.500000  0.500000  0.275000    0.00000000 583 t-inv F
  0.500000  0.500000  0.280000    0.00000000 584 t-inv F
  0.500000  0.500000  0.285000    0.00000000 585 t-inv F
  0.500000  0.500000  0.290000    0.00000000 586 t-inv F
  0.500000  0.500000  0.295000    0.00000000 587 t-inv F
  0.500000  0.500000  0.300000    0.00000000 588 t-inv F
  0.500000  0.500000  0.305000    0.00000000 589 t-inv F
  0.500000  0.500000  0.310000    0.00000000 590 t-inv F
  0.500000  0.500000  0.315000    0.00000000 591 t-inv F
  0.500000  0.500000  0.320000    0.00000000 592 t-inv F
  0.500000  0.500000  0.325000    0.00000000 593 t-inv F
  0.500000  0.500000  0.330000    0.00000000 594 t-inv F
  0.500000  0.500000  0.335000    0.00000000 595 t-inv F
  0.500000  0.500000  0.340000    0.00000000 596 t-inv F
  0.500000  0.500000  0.345000    0.00000000 597 t-inv F
  0.500000  0.500000  0.350000    0.00000000 598 t-inv F
  0.500000  0.500000  0.355000    0.00000000 599 t-inv F
  0.500000  0.500000  0.360000    0.00000000 600 t-inv F
  0.500000  0.500000  0.365000    0.00000000 601 t-inv F
  0.500000  0.500000  0.370000    0.00000000 602 t-inv F
  0.500000  0.500000  0.375000    0.00000000 603 t-inv F
  0.500000  0.500000  0.380000    0.00000000 604 t-inv F
  0.500000  0.500000  0.385000    0.00000000 605 t-inv F
  0.500000  0.500000  0.390000    0.00000000 606 t-inv F
  0.500000  0.500000  0.395000    0.00000000 607 t-inv F
  0.500000  0.500000  0.400000    0.00000000 608 t-inv F
  0.500000  0.500000  0.405000    0.00000000 609 t-inv F
  0.500000  0.500000  0.410000    0.00000000 610 t-inv F
  0.500000  0.500000  0.415000    0.00000000 611 t-inv F
  0.500000  0.500000  0.420000    0.00000000 612 t-inv F
  0.500000  0.500000  0.425000    0.00000000 613 t-inv F
  0.500000  0.500000  0.430000    0.00000000 614 t-inv F
  0.500000  0.500000  0.435000    0.00000000 615 t-inv F
  0.500000  0.500000  0.440000    0.00000000 616 t-inv F
  0.500000  0.500000  0.445000    0.00000000 617 t-inv F
  0.500000  0.500000  0.450000    0.00000000 618 t-inv F
  0.500000  0.500000  0.455000    0.00000000 619 t-inv F
  0.500000  0.500000  0.460000    0.00000000 620 t-inv F
  0.500000  0.500000  0.465000    0.00000000 621 t-inv F
  0.500000  0.500000  0.470000    0.00000000 622 t-inv F
  0.500000  0.500000  0.475000    0.00000000 623 t-inv F
  0.500000  0.500000  0.480000    0.00000000 624 t-inv F
  0.500000  0.500000  0.485000    0.00000000 625 t-inv F
  0.500000  0.500000  0.490000    0.00000000 626 t-inv F
  0.500000  0.500000  0.495000    0.00000000 627 t-inv F
  0.500000  0.500000  0.500000    0.00000000 628 t-inv F
 -0.166667  0.000000  0.000000    0.00462963   2 t-inv T
 -0.333333  0.000000  0.000000    0.00462963   3 t-inv T
  0.000000 -0.166667  0.000000    0.00462963   5 t-inv T
 -0.166667 -0.166667  0.000000    0.00462963   6 t-inv T
 -0.333333 -0.166667  0.000000    0.00462963   7 t-inv T
 -0.500000 -0.166667  0.000000    0.00462963   8 t-inv T
  0.333333 -0.166667  0.000000    0.00462963   9 t-inv T
  0.166667 -0.166667  0.000000    0.00462963  10 t-inv T
  0.000000 -0.333333  0.000000    0.00462963  11 t-inv T
 -0.166667 -0.333333  0.000000    0.00462963  12 t-inv T
 -0.333333 -0.333333  0.000000    0.00462963  13 t-inv T
 -0.500000 -0.333333  0.000000    0.00462963  14 t-inv T
  0.333333 -0.333333  0.000000    0.00462963  15 t-inv T
  0.166667 -0.333333  0.000000    0.00462963  16 t-inv T
 -0.166667 -0.500000  0.000000    0.00462963  18 t-inv T
 -0.333333 -0.500000  0.000000    0.00462963  19 t-inv T
  0.000000  0.000000 -0.166667    0.00462963  21 t-inv T
 -0.166667  0.000000 -0.166667    0.00462963  22 t-inv T
 -0.333333  0.000000 -0.166667    0.00462963  23 t-inv T
 -0.500000  0.000000 -0.166667    0.00462963  24 t-inv T
  0.333333  0.000000 -0.166667    0.00462963  25 t-inv T
  0.166667  0.000000 -0.166667    0.00462963  26 t-inv T
  0.000000 -0.166667 -0.166667    0.00462963  27 t-inv T
 -0.166667 -0.166667 -0.166667    0.00462963  28 t-inv T
 -0.333333 -0.166667 -0.166667    0.00462963  29 t-inv T
 -0.500000 -0.166667 -0.166667    0.00462963  30 t-inv T
  0.333333 -0.166667 -0.166667    0.00462963  31 t-inv T
  0.166667 -0.166667 -0.166667    0.00462963  32 t-inv T
  0.000000 -0.333333 -0.166667    0.00462963  33 t-inv T
 -0.166667 -0.333333 -0.166667    0.00462963  34 t-inv T
 -0.333333 -0.333333 -0.166667    0.00462963  35 t-inv T
 -0.500000 -0.333333 -0.166667    0.00462963  36 t-inv T
  0.333333 -0.333333 -0.166667    0.00462963  37 t-inv T
  0.166667 -0.333333 -0.166667    0.00462963  38 t-inv T
  0.000000 -0.500000 -0.166667    0.00462963  39 t-inv T
 -0.166667 -0.500000 -0.166667    0.00462963  40 t-inv T
 -0.333333 -0.500000 -0.166667    0.00462963  41 t-inv T
 -0.500000 -0.500000 -0.166667    0.00462963  42 t-inv T
  0.333333 -0.500000 -0.166667    0.00462963  43 t-inv T
  0.166667 -0.500000 -0.166667    0.00462963  44 t-inv T
  0.000000  0.333333 -0.166667    0.00462963  45 t-inv T
 -0.166667  0.333333 -0.166667    0.00462963  46 t-inv T
 -0.333333  0.333333 -0.166667    0.00462963  47 t-inv T
 -0.500000  0.333333 -0.166667    0.00462963  48 t-inv T
  0.333333  0.333333 -0.166667    0.00462963  49 t-inv T
  0.166667  0.333333 -0.166667    0.00462963  50 t-inv T
  0.000000  0.166667 -0.166667    0.00462963  51 t-inv T
 -0.166667  0.166667 -0.166667    0.00462963  52 t-inv T
 -0.333333  0.166667 -0.166667    0.00462963  53 t-inv T
 -0.500000  0.166667 -0.166667    0.00462963  54 t-inv T
  0.333333  0.166667 -0.166667    0.00462963  55 t-inv T
  0.166667  0.166667 -0.166667    0.00462963  56 t-inv T
  0.000000  0.000000 -0.333333    0.00462963  57 t-inv T
 -0.166667  0.000000 -0.333333    0.00462963  58 t-inv T
 -0.333333  0.000000 -0.333333    0.00462963  59 t-inv T
 -0.500000  0.000000 -0.333333    0.00462963  60 t-inv T
  0.333333  0.000000 -0.333333    0.00462963  61 t-inv T
  0.166667  0.000000 -0.333333    0.00462963  62 t-inv T
  0.000000 -0.166667 -0.333333    0.00462963  63 t-inv T
 -0.166667 -0.166667 -0.333333    0.00462963  64 t-inv T
 -0.333333 -0.166667 -0.333333    0.00462963  65 t-inv T
 -0.500000 -0.166667 -0.333333    0.00462963  66 t-inv T
  0.333333 -0.166667 -0.333333    0.00462963  67 t-inv T
  0.166667 -0.166667 -0.333333    0.00462963  68 t-inv T
  0.000000 -0.333333 -0.333333    0.00462963  69 t-inv T
 -0.166667 -0.333333 -0.333333    0.00462963  70 t-inv T
 -0.333333 -0.333333 -0.333333    0.00462963  71 t-inv T
 -0.500000 -0.333333 -0.333333    0.00462963  72 t-inv T
  0.333333 -0.333333 -0.333333    0.00462963  73 t-inv T
  0.166667 -0.333333 -0.333333    0.00462963  74 t-inv T
  0.000000 -0.500000 -0.333333    0.00462963  75 t-inv T
 -0.166667 -0.500000 -0.333333    0.00462963  76 t-inv T
 -0.333333 -0.500000 -0.333333    0.00462963  77 t-inv T
 -0.500000 -0.500000 -0.333333    0.00462963  78 t-inv T
  0.333333 -0.500000 -0.333333    0.00462963  79 t-inv T
  0.166667 -0.500000 -0.333333    0.00462963  80 t-inv T
  0.000000  0.333333 -0.333333    0.00462963  81 t-inv T
 -0.166667  0.333333 -0.333333    0.00462963  82 t-inv T
 -0.333333  0.333333 -0.333333    0.00462963  83 t-inv T
 -0.500000  0.333333 -0.333333    0.00462963  84 t-inv T
  0.333333  0.333333 -0.333333    0.00462963  85 t-inv T
  0.166667  0.333333 -0.333333    0.00462963  86 t-inv T
  0.000000  0.166667 -0.333333    0.00462963  87 t-inv T
 -0.166667  0.166667 -0.333333    0.00462963  88 t-inv T
 -0.333333  0.166667 -0.333333    0.00462963  89 t-inv T
 -0.500000  0.166667 -0.333333    0.00462963  90 t-inv T
  0.333333  0.166667 -0.333333    0.00462963  91 t-inv T
  0.166667  0.166667 -0.333333    0.00462963  92 t-inv T
 -0.166667  0.000000 -0.500000    0.00462963  94 t-inv T
 -0.333333  0.000000 -0.500000    0.00462963  95 t-inv T
  0.000000 -0.166667 -0.500000    0.00462963  97 t-inv T
 -0.166667 -0.166667 -0.500000    0.00462963  98 t-inv T
 -0.333333 -0.166667 -0.500000    0.00462963  99 t-inv T
 -0.500000 -0.166667 -0.500000    0.00462963 100 t-inv T
  0.333333 -0.166667 -0.500000    0.00462963 101 t-inv T
  0.166667 -0.166667 -0.500000    0.00462963 102 t-inv T
  0.000000 -0.333333 -0.500000    0.00462963 103 t-inv T
 -0.166667 -0.333333 -0.500000    0.00462963 104 t-inv T
 -0.333333 -0.333333 -0.500000    0.00462963 105 t-inv T
 -0.500000 -0.333333 -0.500000    0.00462963 106 t-inv T
  0.333333 -0.333333 -0.500000    0.00462963 107 t-inv T
  0.166667 -0.333333 -0.500000    0.00462963 108 t-inv T
 -0.166667 -0.500000 -0.500000    0.00462963 110 t-inv T
 -0.333333 -0.500000 -0.500000    0.00462963 111 t-inv T

 ----------------------------------------------------------------------------- 
|                                                                             |
|           W    W    AA    RRRRR   N    N  II  N    N   GGGG   !!!           |
|           W    W   A  A   R    R  NN   N  II  NN   N  G    G  !!!           |
|           W    W  A    A  R    R  N N  N  II  N N  N  G       !!!           |
|           W WW W  AAAAAA  RRRRR   N  N N  II  N  N N  G  GGG   !            |
|           WW  WW  A    A  R   R   N   NN  II  N   NN  G    G                |
|           W    W  A    A  R    R  N    N  II  N    N   GGGG   !!!           |
|                                                                             |
|      The number of bands has been changed from the values supplied          |
|      in the INCAR file. This is a result of running the parallel version.   |
|      The orbitals not found in the WAVECAR file will be initialized with    |
|      random numbers, which is usually adequate. For correlated              |
|      calculations, however, you should redo the groundstate calculation.    |
|      I found NBANDS    =       50  now  NBANDS  =      52                   |
|                                                                             |
 ----------------------------------------------------------------------------- 



--------------------------------------------------------------------------------------------------------




 Dimension of arrays:
   k-points           NKPTS =    628   k-points in BZ     NKDIM =    732   number of bands    NBANDS=     52
   number of dos      NEDOS =    301   number of ions     NIONS =     12
   non local maximal  LDIM  =      6   non local SUM 2l+1 LMDIM =     18
   total plane-waves  NPLWV = 110592
   max r-space proj   IRMAX =      1   max aug-charges    IRDMAX=  25940
   dimension x,y,z NGX =    48 NGY =   48 NGZ =   48
   dimension x,y,z NGXF=    96 NGYF=   96 NGZF=   96
   support grid    NGXF=    96 NGYF=   96 NGZF=   96
   ions per type =               1   1   6   1   3
 NGX,Y,Z   is equivalent  to a cutoff of  12.69, 12.72, 12.67 a.u.
 NGXF,Y,Z  is equivalent  to a cutoff of  25.37, 25.44, 25.34 a.u.


 I would recommend the setting:
   dimension x,y,z NGX =    46 NGY =   46 NGZ =   46
 SYSTEM =  Name                                    
 POSCAR =  MA-Pb-I (Github)                        

 Startparameter for this run:
   NWRITE =      2    write-flag & timer
   PREC   = accura    normal or accurate (medium, high low for compatibility)
   ISTART =      0    job   : 0-new  1-cont  2-samecut
   ICHARG =      2    charge: 1-file 2-atom 10-const
   ISPIN  =      1    spin polarized calculation?
   LNONCOLLINEAR =      F non collinear calculations
   LSORBIT =      F    spin-orbit coupling
   INIWAV =      1    electr: 0-lowe 1-rand  2-diag
   LASPH  =      F    aspherical Exc in radial PAW
   METAGGA=      F    non-selfconsistent MetaGGA calc.

 Electronic Relaxation 1
   ENCUT  =  500.0 eV  36.75 Ry    6.06 a.u.  11.47 11.44 11.48*2*pi/ulx,y,z
   ENINI  =  500.0     initial cutoff
   ENAUG  =  644.9 eV  augmentation charge cutoff
   NELM   =     60;   NELMIN=  5; NELMDL=  0     # of ELM steps 
   EDIFF  = 0.1E-05   stopping-criterion for ELM
   LREAL  =      F    real-space projection
   NLSPLINE    = F    spline interpolate recip. space projectors
   LCOMPAT=      F    compatible to vasp.4.4
   GGA_COMPAT  = T    GGA compatible to vasp.4.4-vasp.4.6
   LMAXPAW     = -100 max onsite density
   LMAXMIX     =    2 max onsite mixed and CHGCAR
   VOSKOWN=      0    Vosko Wilk Nusair interpolation
   ROPT   =    0.00000   0.00000   0.00000   0.00000
   ROPT   =    0.00000
 Ionic relaxation
   EDIFFG = -.5E-02   stopping-criterion for IOM
   NSW    =      0    number of steps for IOM
   NBLOCK =      1;   KBLOCK =      1    inner block; outer block 
   IBRION =     -1    ionic relax: 0-MD 1-quasi-New 2-CG
   NFREE  =      1    steps in history (QN), initial steepest desc. (CG)
   ISIF   =      3    stress and relaxation
   IWAVPR =     10    prediction:  0-non 1-charg 2-wave 3-comb
   ISYM   =      2    0-nonsym 1-usesym 2-fastsym
   LCORR  =      T    Harris-Foulkes like correction to forces

   POTIM  = 0.5000    time-step for ionic-motion
   TEIN   =    0.0    initial temperature
   TEBEG  =    0.0;   TEEND  =   0.0 temperature during run
   SMASS  =  -3.00    Nose mass-parameter (am)
   estimated Nose-frequenzy (Omega)   =  0.10E-29 period in steps =****** mass=  -0.904E-27a.u.
   SCALEE = 1.0000    scale energy and forces
   NPACO  =    256;   APACO  = 16.0  distance and # of slots for P.C.
   PSTRESS=    0.0 pullay stress

  Mass of Ions in am
   POMASS =  12.01 14.00  1.00207.20126.90
  Ionic Valenz
   ZVAL   =   4.00  5.00  1.00 14.00  7.00
  Atomic Wigner-Seitz radii
   RWIGS  =  -1.00 -1.00 -1.00 -1.00 -1.00
  virtual crystal weights 
   VCA    =   1.00  1.00  1.00  1.00  1.00
   NELECT =      50.0000    total number of electrons
   NUPDOWN=      -1.0000    fix difference up-down

 DOS related values:
   EMIN   =  10.00;   EMAX   =-10.00  energy-range for DOS
   EFERMI =   0.00
   ISMEAR =     0;   SIGMA  =   0.01  broadening in eV -4-tet -1-fermi 0-gaus

 Electronic relaxation 2 (details)
   IALGO  =     58    algorithm
   LDIAG  =      T    sub-space diagonalisation (order eigenvalues)
   LSUBROT=      F    optimize rotation matrix (better conditioning)
   TURBO    =      0    0=normal 1=particle mesh
   IRESTART =      0    0=no restart 2=restart with 2 vectors
   NREBOOT  =      0    no. of reboots
   NMIN     =      0    reboot dimension
   EREF     =   0.00    reference energy to select bands
   IMIX   =      4    mixing-type and parameters
     AMIX     =   0.40;   BMIX     =  1.00
     AMIX_MAG =   1.60;   BMIX_MAG =  1.00
     AMIN     =   0.01
     WC   =   100.;   INIMIX=   1;  MIXPRE=   1;  MAXMIX= -45

 Intra band minimization:
   WEIMIN = 0.0000     energy-eigenvalue tresh-hold
   EBREAK =  0.48E-08  absolut break condition
   DEPER  =   0.30     relativ break condition  

   TIME   =   0.40     timestep for ELM

  volume/ion in A,a.u.               =      20.71       139.75
  Fermi-wavevector in a.u.,A,eV,Ry     =   0.959306  1.812825 12.520994  0.920267
  Thomas-Fermi vector in A             =   2.088490
 
 Write flags
   LWAVE  =      T    write WAVECAR
   LCHARG =      T    write CHGCAR
   LVTOT  =      F    write LOCPOT, total local potential
   LVHAR  =      F    write LOCPOT, Hartree potential only
   LELF   =      F    write electronic localiz. function (ELF)
   LORBIT =     10    0 simple, 1 ext, 2 COOP (PROOUT)


 Dipole corrections
   LMONO  =      F    monopole corrections only (constant potential shift)
   LDIPOL =      F    correct potential (dipole corrections)
   IDIPOL =      0    1-x, 2-y, 3-z, 4-all directions 
   EPSILON=  1.0000000 bulk dielectric constant

 Core level calculations are selected ICORELEVEL =  1
 Exchange correlation treatment:
   GGA     =    PE    GGA type
   LEXCH   =     8    internal setting for exchange type
   VOSKOWN=      0    Vosko Wilk Nusair interpolation
   EXXOEP  =     0    0=HF, 1=EXX-LHF (local Hartree Fock) 2=EXX OEP
   LHFCALC =     T    Hartree Fock is set to
   LSYMGRAD=     F    symmetrize gradient (conserves proper symmetry)
   PRECFOCK=fast      Normal, Fast or Accurate (Low or Medium for compatibility)
   LRHFCALC=     F    long range Hartree Fock
   LRSCOR  =     F    long range correlation only (use DFT for short range part)
   LTHOMAS =     F    Thomas Fermi screening in HF
   LMODELHF=     F    short range full HF, long range fraction AEXX
   ENCUT4O =  -1.0   cutoff for four orbital integrals eV
   LMAXFOCK=     4    L truncation for augmentation on plane wave grid
   LMAXFOCKAE=  -1    L truncation for all-electron charge restoration on plane wave grid
   NMAXFOCKAE=   1    number of basis functions for all-electron charge restoration
[...]
     29       6.1825      0.00000
     30       7.7665      0.00000
     31       8.2301      0.00000
     32       8.3967      0.00000
     33       8.5974      0.00000
     34       8.9425      0.00000
     35       9.0507      0.00000
     36       9.2186      0.00000
     37       9.6506      0.00000
     38       9.7127      0.00000
     39       9.9839      0.00000
     40      10.4507      0.00000
     41      10.7199      0.00000
     42      11.1732      0.00000
     43      11.4974      0.00000
     44      11.7541      0.00000
     45      12.0805      0.00000
     46      12.8554      0.00000
     47      13.1584      0.00000
     48      13.1947      0.00000
     49      13.2942      0.00000
     50      13.8925      0.00000
     51      14.0801      0.00000
     52      14.4116      0.00000

 k-point   624 :       0.5000    0.5000    0.4800
  band No.  band energies     occupation 
      1     -20.8418      2.00000
      2     -17.1503      2.00000
      3     -17.1267      2.00000
      4     -17.0987      2.00000
      5     -17.0808      2.00000
      6     -17.0764      2.00000
      7     -13.3082      2.00000
      8     -11.9233      2.00000
      9     -11.8496      2.00000
     10     -11.4790      2.00000
     11      -9.1749      2.00000
     12      -9.0544      2.00000
     13      -8.0429      2.00000
     14      -7.0320      2.00000
     15      -4.7393      2.00000
     16      -4.7289      2.00000
     17      -1.7236      2.00000
     18      -1.3261      2.00000
     19      -1.2860      2.00000
     20      -0.5154      2.00000
     21      -0.4178      2.00000
     22      -0.1704      2.00000
     23       0.2467      2.00000
     24       0.2514      2.00000
     25       1.2503      2.00000
     26       3.2901      0.00000
     27       3.2976      0.00000
     28       3.5231      0.00000
     29       6.1811      0.00000
     30       7.7664      0.00000
     31       8.2425      0.00000
     32       8.3959      0.00000
     33       8.5875      0.00000
     34       8.9425      0.00000
     35       9.0496      0.00000
     36       9.2187      0.00000
     37       9.6552      0.00000
     38       9.7144      0.00000
     39       9.9812      0.00000
     40      10.4509      0.00000
     41      10.7204      0.00000
     42      11.1735      0.00000
     43      11.4934      0.00000
     44      11.7527      0.00000
     45      12.0801      0.00000
     46      12.8479      0.00000
     47      13.1699      0.00000
     48      13.2134      0.00000
     49      13.2874      0.00000
     50      13.9339      0.00000
     51      14.2308      0.00000
     52      14.6121      0.00000

 k-point   625 :       0.5000    0.5000    0.4850
  band No.  band energies     occupation 
      1     -20.8418      2.00000
      2     -17.1503      2.00000
      3     -17.1267      2.00000
      4     -17.0987      2.00000
      5     -17.0808      2.00000
      6     -17.0764      2.00000
      7     -13.3081      2.00000
      8     -11.9232      2.00000
      9     -11.8497      2.00000
     10     -11.4790      2.00000
     11      -9.1749      2.00000
     12      -9.0543      2.00000
     13      -8.0439      2.00000
     14      -7.0320      2.00000
     15      -4.7393      2.00000
     16      -4.7288      2.00000
     17      -1.7243      2.00000
     18      -1.3265      2.00000
     19      -1.2858      2.00000
     20      -0.5095      2.00000
     21      -0.4193      2.00000
     22      -0.1697      2.00000
     23       0.2467      2.00000
     24       0.2523      2.00000
     25       1.2526      2.00000
     26       3.2893      0.00000
     27       3.2957      0.00000
     28       3.5164      0.00000
     29       6.1800      0.00000
     30       7.7664      0.00000
     31       8.2527      0.00000
     32       8.3954      0.00000
     33       8.5792      0.00000
     34       8.9425      0.00000
     35       9.0487      0.00000
     36       9.2188      0.00000
     37       9.6589      0.00000
     38       9.7157      0.00000
     39       9.9791      0.00000
     40      10.4510      0.00000
     41      10.7208      0.00000
     42      11.1738      0.00000
     43      11.4902      0.00000
     44      11.7517      0.00000
     45      12.0796      0.00000
     46      12.8512      0.00000
     47      13.1736      0.00000
     48      13.2074      0.00000
     49      13.2773      0.00000
     50      13.9553      0.00000
     51      14.1850      0.00000
     52      14.2965      0.00000

 k-point   626 :       0.5000    0.5000    0.4900
  band No.  band energies     occupation 
      1     -20.8418      2.00000
      2     -17.1503      2.00000
      3     -17.1267      2.00000
      4     -17.0987      2.00000
      5     -17.0808      2.00000
      6     -17.0764      2.00000
      7     -13.3081      2.00000
      8     -11.9231      2.00000
      9     -11.8497      2.00000
     10     -11.4790      2.00000
     11      -9.1749      2.00000
     12      -9.0542      2.00000
     13      -8.0446      2.00000
     14      -7.0320      2.00000
     15      -4.7393      2.00000
     16      -4.7288      2.00000
     17      -1.7247      2.00000
     18      -1.3268      2.00000
     19      -1.2857      2.00000
     20      -0.5052      2.00000
     21      -0.4206      2.00000
     22      -0.1691      2.00000
     23       0.2467      2.00000
     24       0.2529      2.00000
     25       1.2543      2.00000
     26       3.2887      0.00000
     27       3.2943      0.00000
     28       3.5117      0.00000
     29       6.1792      0.00000
     30       7.7663      0.00000
     31       8.2604      0.00000
     32       8.3949      0.00000
     33       8.5729      0.00000
     34       8.9425      0.00000
     35       9.0480      0.00000
     36       9.2188      0.00000
     37       9.6616      0.00000
     38       9.7166      0.00000
     39       9.9775      0.00000
     40      10.4511      0.00000
     41      10.7210      0.00000
     42      11.1740      0.00000
     43      11.4880      0.00000
     44      11.7510      0.00000
     45      12.0793      0.00000
     46      12.8544      0.00000
     47      13.2079      0.00000
     48      13.2512      0.00000
     49      13.2824      0.00000
     50      13.9404      0.00000
     51      14.2215      0.00000
     52      14.4720      0.00000

 k-point   627 :       0.5000    0.5000    0.4950
  band No.  band energies     occupation 
      1     -20.8418      2.00000
      2     -17.1503      2.00000
      3     -17.1267      2.00000
      4     -17.0987      2.00000
      5     -17.0808      2.00000
      6     -17.0764      2.00000
      7     -13.3081      2.00000
      8     -11.9231      2.00000
      9     -11.8498      2.00000
     10     -11.4790      2.00000
     11      -9.1749      2.00000
     12      -9.0542      2.00000
     13      -8.0451      2.00000
     14      -7.0320      2.00000
     15      -4.7393      2.00000
     16      -4.7287      2.00000
     17      -1.7250      2.00000
     18      -1.3270      2.00000
     19      -1.2856      2.00000
     20      -0.5025      2.00000
     21      -0.4214      2.00000
     22      -0.1688      2.00000
     23       0.2467      2.00000
     24       0.2533      2.00000
     25       1.2553      2.00000
     26       3.2883      0.00000
     27       3.2935      0.00000
     28       3.5088      0.00000
     29       6.1787      0.00000
     30       7.7663      0.00000
     31       8.2651      0.00000
     32       8.3947      0.00000
     33       8.5689      0.00000
     34       8.9425      0.00000
     35       9.0476      0.00000
     36       9.2189      0.00000
     37       9.6632      0.00000
     38       9.7172      0.00000
     39       9.9765      0.00000
     40      10.4512      0.00000
     41      10.7212      0.00000
     42      11.1741      0.00000
     43      11.4866      0.00000
     44      11.7505      0.00000
     45      12.0791      0.00000
     46      12.8620      0.00000
     47      13.1928      0.00000
     48      13.2329      0.00000
     49      13.2752      0.00000
     50      13.9900      0.00000
     51      14.1876      0.00000
     52      14.6085      0.00000

 k-point   628 :       0.5000    0.5000    0.5000
  band No.  band energies     occupation 
      1     -20.8418      2.00000
      2     -17.1503      2.00000
      3     -17.1267      2.00000
      4     -17.0987      2.00000
      5     -17.0808      2.00000
      6     -17.0764      2.00000
      7     -13.3081      2.00000
      8     -11.9230      2.00000
      9     -11.8498      2.00000
     10     -11.4790      2.00000
     11      -9.1749      2.00000
     12      -9.0542      2.00000
     13      -8.0452      2.00000
     14      -7.0320      2.00000
     15      -4.7393      2.00000
     16      -4.7287      2.00000
     17      -1.7251      2.00000
     18      -1.3271      2.00000
     19      -1.2856      2.00000
     20      -0.5016      2.00000
     21      -0.4217      2.00000
     22      -0.1687      2.00000
     23       0.2467      2.00000
     24       0.2534      2.00000
     25       1.2557      2.00000
     26       3.2882      0.00000
     27       3.2932      0.00000
     28       3.5078      0.00000
     29       6.1786      0.00000
     30       7.7663      0.00000
     31       8.2667      0.00000
     32       8.3946      0.00000
     33       8.5675      0.00000
     34       8.9425      0.00000
     35       9.0475      0.00000
     36       9.2189      0.00000
     37       9.6638      0.00000
     38       9.7174      0.00000
     39       9.9762      0.00000
     40      10.4512      0.00000
     41      10.7212      0.00000
     42      11.1742      0.00000
     43      11.4862      0.00000
     44      11.7504      0.00000
     45      12.0791      0.00000
     46      12.8560      0.00000
     47      13.1867      0.00000
     48      13.2180      0.00000
     49      13.2700      0.00000
     50      13.9775      0.00000
     51      14.0713      0.00000
     52      14.3507      0.00000


--------------------------------------------------------------------------------------------------------


 soft charge-density along one line, spin component           1
         0         1         2         3         4         5         6         7         8         9
 total charge-density along one line
 
 pseudopotential strength for first ion, spin component:           1
  9.657  12.833  -0.000   0.001   0.009   0.000  -0.003  -0.029
 12.833  17.053  -0.000   0.001   0.012   0.000  -0.004  -0.038
 -0.000  -0.000  -3.915   0.000   0.000   7.636  -0.000  -0.000
  0.001   0.001   0.000  -3.916  -0.002  -0.000   7.637   0.004
  0.009   0.012   0.000  -0.002  -3.934  -0.000   0.004   7.672
  0.000   0.000   7.636  -0.000  -0.000 -16.990   0.000   0.000
 -0.003  -0.004  -0.000   7.637   0.004   0.000 -16.992  -0.009
 -0.029  -0.038  -0.000   0.004   7.672   0.000  -0.009 -17.061
 total augmentation occupancy for first ion, spin component:           1
  8.482  -3.815  -0.000   0.010   0.063  -0.000   0.005   0.040
 -3.815   1.742   0.000  -0.019  -0.152   0.000  -0.004  -0.033
 -0.000   0.000   1.720  -0.000   0.000   0.139  -0.000  -0.000
  0.010  -0.019  -0.000   1.714  -0.041  -0.000   0.139   0.001
  0.063  -0.152   0.000  -0.041   1.371  -0.000   0.001   0.143
 -0.000   0.000   0.139  -0.000  -0.000   0.012  -0.000  -0.000
  0.005  -0.004  -0.000   0.139   0.001  -0.000   0.012   0.001
  0.040  -0.033  -0.000   0.001   0.143  -0.000   0.001   0.016


------------------------ aborting loop because EDIFF is reached ----------------------------------------


 


 total charge     
 
# of ion     s       p       d       tot
----------------------------------------
  1        0.844   1.760   0.000   2.604
  2        1.226   2.788   0.000   4.014
  3        0.638   0.046   0.000   0.684
  4        0.637   0.046   0.000   0.683
  5        0.637   0.046   0.000   0.683
  6        0.599   0.080   0.000   0.679
  7        0.599   0.080   0.000   0.679
  8        0.594   0.080   0.000   0.674
  9        1.519   0.477   9.846  11.841
 10        1.504   2.897   0.008   4.409
 11        1.504   2.897   0.008   4.409
 12        1.505   2.885   0.007   4.397
------------------------------------------------
tot       11.806  14.081   9.870  35.756
 
    FORLOC:  cpu time    0.0040: real time    0.0043
    FORHF :  cpu time 2022.3744: real time 2023.6513
    FORNL :  cpu time    0.5920: real time    0.5910
    STRESS:  cpu time    6.8204: real time    6.8273
    FORCOR:  cpu time    0.0840: real time    0.0830
    OFIELD:  cpu time    0.0000: real time    0.0003

  FORCE on cell =-STRESS in cart. coord.  units (eV):
  Direction    XX          YY          ZZ          XY          YZ          ZX
  --------------------------------------------------------------------------------------
  Alpha Z    46.46596    46.46596    46.46596
  Ewald    -631.85511  -642.25523  -667.21442    -0.07437    -0.09326    21.50540
  Hartree   355.18604   357.51434   342.01731    -0.04920    -0.05741    12.72040
  E(xc)    -154.50054  -154.51229  -154.56270    -0.00019     0.00001     0.04915
  Local    -620.76786  -609.60405  -570.45036     0.12510     0.14508   -33.74850
  n-local   534.18164   531.26975   531.20230    -0.00149     0.00002     0.31581
  augment    11.84272    11.81179    11.70400    -0.00009     0.00003     0.01517
  Kinetic   581.37880   580.86822   582.59323     0.00056     0.00439    -0.74602
  Fock            NaN         NaN         NaN         NaN         NaN         NaN
  -------------------------------------------------------------------------------------
  Total           NaN         NaN         NaN         NaN         NaN         NaN
  in kB           NaN         NaN         NaN         NaN         NaN         NaN
  external pressure =         NaN kB  Pullay stress =        0.00 kB


 VOLUME and BASIS-vectors are now :
 -----------------------------------------------------------------------------
  energy-cutoff  :      500.00
  volume of cell :      248.50
      direct lattice vectors                 reciprocal lattice vectors
     6.290120125  0.000000000  0.000000000     0.158979476 -0.000001969  0.001001495
     0.000077694  6.273890018  0.000000000     0.000000000  0.159390744  0.000003893
    -0.039667571 -0.000153793  6.296915042     0.000000000  0.000000000  0.158807923

  length of vectors
     6.290120125  6.273890018  6.297039986     0.158982630  0.159390744  0.158807923


 FORCES acting on ions:
    Electron-Ion                     Ewald-Force                    Non-Local-Force
 -----------------------------------------------------------------------------------------------
   0.889E+02 -.818E-01 0.171E+02   -.969E+02 0.863E-01 -.179E+02   0.731E+01 -.332E-02 0.825E+00
   -.422E+02 -.768E-02 0.335E+01   0.412E+02 0.321E-02 -.333E+01   0.141E+01 0.129E-02 0.668E-01
   0.171E+02 0.540E-01 0.496E+02   -.184E+02 -.616E-01 -.550E+02   0.135E+01 0.779E-02 0.547E+01
   0.253E+02 -.390E+02 -.177E+02   -.275E+02 0.435E+02 0.200E+02   0.223E+01 -.458E+01 -.241E+01
   0.253E+02 0.389E+02 -.178E+02   -.275E+02 -.434E+02 0.202E+02   0.224E+01 0.457E+01 -.242E+01
   -.271E+02 -.493E+02 0.271E+02   0.300E+02 0.546E+02 -.298E+02   -.297E+01 -.554E+01 0.275E+01
   -.270E+02 0.493E+02 0.270E+02   0.299E+02 -.546E+02 -.296E+02   -.296E+01 0.555E+01 0.273E+01
   -.145E+02 -.753E-01 -.586E+02   0.162E+02 0.820E-01 0.648E+02   -.182E+01 -.679E-02 -.648E+01
   -.317E+02 0.635E-01 -.104E+02   0.304E+02 -.626E-01 0.101E+02   0.114E+01 -.885E-03 0.328E+00
   -.110E+02 0.715E-01 0.416E+01   0.110E+02 -.738E-01 -.408E+01   0.598E-01 0.230E-02 -.780E-01
   -.128E+02 -.220E-01 -.173E+02   0.128E+02 0.215E-01 0.179E+02   0.342E-01 0.441E-03 -.512E+00
   0.167E+01 0.305E-01 -.696E+01   -.112E+01 -.291E-01 0.679E+01   -.550E+00 -.155E-02 0.176E+00
 -----------------------------------------------------------------------------------------------
   -.800E+01 0.216E-02 -.499E+00   -.151E-13 -.230E-14 -.133E-13   0.747E+01 -.185E-02 0.455E+00
 
 
 POSITION                                       TOTAL-FORCE (eV/Angst)
 -----------------------------------------------------------------------------------
      5.63915      6.27350      6.27384              NaN           NaN           NaN
      0.85821      6.27280      0.15665              NaN           NaN           NaN
      5.40518      6.27196      5.19958              NaN           NaN           NaN
      5.26698      0.90190      0.45292              NaN           NaN           NaN
      5.26573      5.37368      0.45579              NaN           NaN           NaN
      1.26776      0.84227      6.03329              NaN           NaN           NaN
      1.26657      5.42716      6.03557              NaN           NaN           NaN
      1.13753     -0.00001      1.16715              NaN           NaN           NaN
      2.97634      3.13707      2.99511              NaN           NaN           NaN
      2.64610      3.13606      6.12444              NaN           NaN           NaN
      2.72152      0.00020      3.18965              NaN           NaN           NaN
      6.03902      3.13830      2.81942              NaN           NaN           NaN
 -----------------------------------------------------------------------------------
    total drift:                                     NaN           NaN           NaN


--------------------------------------------------------------------------------------------------------



  FREE ENERGIE OF THE ION-ELECTRON SYSTEM (eV)
  ---------------------------------------------------
  free  energy   TOTEN  =       -59.87863447 eV

  energy  without entropy=      -59.87863447  energy(sigma->0) =      -59.87863447
 


--------------------------------------------------------------------------------------------------------


    POTLOK:  cpu time    0.3000: real time    0.2988


--------------------------------------------------------------------------------------------------------


 writing wavefunctions
     LOOP+:  cpu time18092.9787: real time18112.0251
    4ORBIT:  cpu time    0.0000: real time    0.0000
 


 total charge     
 
# of ion     s       p       d       tot
----------------------------------------
  1        0.844   1.760   0.000   2.604
  2        1.226   2.788   0.000   4.014
  3        0.638   0.046   0.000   0.684
  4        0.637   0.046   0.000   0.683
  5        0.637   0.046   0.000   0.683
  6        0.599   0.080   0.000   0.679
  7        0.599   0.080   0.000   0.679
  8        0.594   0.080   0.000   0.674
  9        1.519   0.477   9.846  11.841
 10        1.504   2.897   0.008   4.409
 11        1.504   2.897   0.008   4.409
 12        1.505   2.885   0.007   4.397
------------------------------------------------
tot       11.806  14.081   9.870  35.756
 

 total amount of memory used by VASP on root node   986114. kBytes
========================================================================

   base      :      30000. kBytes
   nonl-proj :     503015. kBytes
   fftplans  :       1951. kBytes
   grid      :       3741. kBytes
   one-center:         31. kBytes
   HF        :         46. kBytes
   nonlr-proj:       2166. kBytes
   wavefun   :     445164. kBytes
 
  
  
 General timing and accounting informations for this job:
 ========================================================
  
                  Total CPU time used (sec):    18269.357
                            User time (sec):    18229.339
                          System time (sec):       40.019
                         Elapsed time (sec):    18295.381
  
                   Maximum memory used (kb):     1134468.
                   Average memory used (kb):           0.
  
                          Minor page faults:       748912
                          Major page faults:            0
                 Voluntary context switches:         1400
