 vasp.5.4.1 24Jun15 (build Nov 25 2015 16:01:35) complex                        
  
 executed on         CrayXC-Intel date 2016.06.16  11:24:26
 running on 3648 total cores
 distrk:  each k-point on   24 cores,  152 groups
 distr:  one band on NCORES_PER_BAND=  24 cores,    1 groups


--------------------------------------------------------------------------------------------------------


 INCAR:
 POTCAR:    PAW_PBE Cu_pv 06Sep2000               
 POTCAR:    PAW_PBE Zn 06Sep2000                  
 POTCAR:    PAW_PBE Sn_d 06Sep2000                
 POTCAR:    PAW_PBE S 06Sep2000                   

 ----------------------------------------------------------------------------- 
|                                                                             |
|           W    W    AA    RRRRR   N    N  II  N    N   GGGG   !!!           |
|           W    W   A  A   R    R  NN   N  II  NN   N  G    G  !!!           |
|           W    W  A    A  R    R  N N  N  II  N N  N  G       !!!           |
|           W WW W  AAAAAA  RRRRR   N  N N  II  N  N N  G  GGG   !            |
|           WW  WW  A    A  R   R   N   NN  II  N   NN  G    G                |
|           W    W  A    A  R    R  N    N  II  N    N   GGGG   !!!           |
|                                                                             |
|      For optimal performance we recommend to set                            |
|        NCORE= 4 - approx SQRT( number of cores)                             |
|      NCORE specifies how many cores store one orbital (NPAR=cpu/NCORE).     |
|      This setting can  greatly improve the performance of VASP for DFT.     |
|      The default, NPAR=number of cores might be grossly inefficient         |
|      on modern multi-core architectures or massively parallel machines.     |
|      Do your own testing !!!!                                               |
|      Unfortunately you need to use the default for GW and RPA calculations. |
|      (for HF NCORE is supported but not extensively tested yet)             |
|                                                                             |
 ----------------------------------------------------------------------------- 


 ----------------------------------------------------------------------------- 
|                                                                             |
|           W    W    AA    RRRRR   N    N  II  N    N   GGGG   !!!           |
|           W    W   A  A   R    R  NN   N  II  NN   N  G    G  !!!           |
|           W    W  A    A  R    R  N N  N  II  N N  N  G       !!!           |
|           W WW W  AAAAAA  RRRRR   N  N N  II  N  N N  G  GGG   !            |
|           WW  WW  A    A  R   R   N   NN  II  N   NN  G    G                |
|           W    W  A    A  R    R  N    N  II  N    N   GGGG   !!!           |
|                                                                             |
|      You have enabled k-point parallelism (KPAR>1).                         |
|      This developmental code was originally  written by Paul Kent at ORNL,  |
|      and carefully double checked in Vienna.                                |
|      GW as well as linear response parallelism added by Martijn Marsman     |
|      and Georg Kresse.                                                      |
|      Carefully verify results versus KPAR=1.                                |
|      Report problems to Paul Kent and Vienna.                               |
|                                                                             |
 ----------------------------------------------------------------------------- 


 ----------------------------------------------------------------------------- 
|                                                                             |
|           W    W    AA    RRRRR   N    N  II  N    N   GGGG   !!!           |
|           W    W   A  A   R    R  NN   N  II  NN   N  G    G  !!!           |
|           W    W  A    A  R    R  N N  N  II  N N  N  G       !!!           |
|           W WW W  AAAAAA  RRRRR   N  N N  II  N  N N  G  GGG   !            |
|           WW  WW  A    A  R   R   N   NN  II  N   NN  G    G                |
|           W    W  A    A  R    R  N    N  II  N    N   GGGG   !!!           |
|                                                                             |
|      You have selected ISYM=2 for HF type calculation. This will symmetrize |
|      the charge density but not the exchange potential.                     |
|      I suggest to use ISYM=3 instead. This uses symmetry to obtain          |
|      the orbitals at all k-points in the Brillouine zone, but does not      |
|      apply symmetry to the Hartree potential directly.                      |
|      The resultant charge might have lower symmetry than the crystal,       |
|      but at least, Hartree and exchange are fully compatible.               |
|                                                                             |
 ----------------------------------------------------------------------------- 

 POTCAR:    PAW_PBE Cu_pv 06Sep2000               
   VRHFIN =Cu: d10 p1                                                           
   LEXCH  = PE                                                                  
   EATOM  =  4120.1201 eV,  302.8203 Ry                                         
                                                                                
   TITEL  = PAW_PBE Cu_pv 06Sep2000                                             
   LULTRA =        F    use ultrasoft PP ?                                      
   IUNSCR =        1    unscreen: 0-lin 1-nonlin 2-no                           
   RPACOR =    1.500    partial core radius                                     
   POMASS =   63.546; ZVAL   =   17.000    mass and valenz                      
   RCORE  =    2.000    outmost cutoff radius                                   
   RWIGS  =    2.000; RWIGS  =    1.058    wigner-seitz radius (au A)           
   ENMAX  =  368.648; ENMIN  =  276.486 eV                                      
   RCLOC  =    1.304    cutoff for local pot                                    
   LCOR   =        T    correct aug charges                                     
   LPAW   =        T    paw PP                                                  
   EAUG   =  758.233                                                            
   DEXC   =    0.000                                                            
   RMAX   =    2.046    core radius for proj-oper                               
   RAUG   =    1.300    factor for augmentation sphere                          
   RDEP   =    2.025    radius for radial grids                                 
   RDEPT  =    1.558    core radius for aug-charge                              
                                                                                
   Atomic configuration                                                         
    8 entries                                                                   
     n  l   j            E        occ.                                          
     1  0  0.50     -8850.2467   2.0000                                         
     2  0  0.50     -1062.3498   2.0000                                         
     2  1  1.50      -916.8226   6.0000                                         
     3  0  0.50      -114.6929   2.0000                                         
     3  1  1.50       -72.1325   6.0000                                         
     3  2  2.50        -5.0394  10.0000                                         
     4  0  0.50        -4.6097   1.0000                                         
     4  3  2.50        -1.3606   0.0000                                         
   Description                                                                  
     l       E           TYP  RCUT    TYP  RCUT                                 
     1    -72.1324777     23  1.700                                             
     1     -1.3605826     23  1.700                                             
     2     -5.0393776     23  2.000                                             
     2     -6.3999602     23  2.000                                             
     0     -4.6097062     23  1.800                                             
     0     14.1620818     23  1.800                                             
  local pseudopotential read in
  partial core-charges read in
  partial kinetic energy density read in
  atomic valenz-charges read in
  non local Contribution for L=           1  read in
    real space projection operators read in
  non local Contribution for L=           1  read in
    real space projection operators read in
  non local Contribution for L=           2  read in
    real space projection operators read in
  non local Contribution for L=           2  read in
    real space projection operators read in
  non local Contribution for L=           0  read in
    real space projection operators read in
  non local Contribution for L=           0  read in
    real space projection operators read in
    PAW grid and wavefunctions read in
 
   number of l-projection  operators is LMAX  =           6
   number of lm-projection operators is LMMAX =          18
 
 POTCAR:    PAW_PBE Zn 06Sep2000                  
   VRHFIN =Zn: d10 p2                                                           
   LEXCH  = PE                                                                  
   EATOM  =  1748.8345 eV,  128.5357 Ry                                         
                                                                                
   TITEL  = PAW_PBE Zn 06Sep2000                                                
   LULTRA =        F    use ultrasoft PP ?                                      
   IUNSCR =        1    unscreen: 0-lin 1-nonlin 2-no                           
   RPACOR =    2.000    partial core radius                                     
   POMASS =   65.390; ZVAL   =   12.000    mass and valenz                      
   RCORE  =    2.300    outmost cutoff radius                                   
   RWIGS  =    2.400; RWIGS  =    1.270    wigner-seitz radius (au A)           
   ENMAX  =  276.723; ENMIN  =  207.542 eV                                      
   RCLOC  =    1.828    cutoff for local pot                                    
   LCOR   =        T    correct aug charges                                     
   LPAW   =        T    paw PP                                                  
   EAUG   =  575.892                                                            
   DEXC   =    0.000                                                            
   RMAX   =    2.347    core radius for proj-oper                               
   RAUG   =    1.300    factor for augmentation sphere                          
   RDEP   =    2.324    radius for radial grids                                 
   RDEPT  =    1.788    core radius for aug-charge                              
                                                                                
   Atomic configuration                                                         
    9 entries                                                                   
     n  l   j            E        occ.                                          
     1  0  0.50     -9524.6913   2.0000                                         
     2  0  0.50     -1158.1882   2.0000                                         
     2  1  1.50     -1003.8506   6.0000                                         
     3  0  0.50      -129.2194   2.0000                                         
     3  1  1.50       -83.3890   6.0000                                         
     3  2  2.50       -10.1410  10.0000                                         
     4  0  0.50        -5.9785   2.0000                                         
     4  1  0.50        -4.0817   0.0000                                         
     4  3  2.50        -1.3606   0.0000                                         
   Description                                                                  
     l       E           TYP  RCUT    TYP  RCUT                                 
     2    -10.1410010     23  2.300                                             
     2    -11.5015836     23  2.300                                             
     0     -5.9785163     23  2.300                                             
     0      1.1858015     23  2.300                                             
     1     -2.7211652     23  2.300                                             
     1     13.2444212     23  2.300                                             
  local pseudopotential read in
  partial core-charges read in
  partial kinetic energy density read in
  atomic valenz-charges read in
  non local Contribution for L=           2  read in
    real space projection operators read in
  non local Contribution for L=           2  read in
    real space projection operators read in
  non local Contribution for L=           0  read in
    real space projection operators read in
  non local Contribution for L=           0  read in
    real space projection operators read in
  non local Contribution for L=           1  read in
    real space projection operators read in
  non local Contribution for L=           1  read in
    real space projection operators read in
    PAW grid and wavefunctions read in
 
   number of l-projection  operators is LMAX  =           6
   number of lm-projection operators is LMMAX =          18
 
 POTCAR:    PAW_PBE Sn_d 06Sep2000                
   VRHFIN =Sn: s2p2                                                             
   LEXCH  = PE                                                                  
   EATOM  =  1893.1092 eV,  139.1396 Ry                                         
                                                                                
   TITEL  = PAW_PBE Sn_d 06Sep2000                                              
   LULTRA =        F    use ultrasoft PP ?                                      
   IUNSCR =        1    unscreen: 0-lin 1-nonlin 2-no                           
   RPACOR =    2.300    partial core radius                                     
   POMASS =  118.710; ZVAL   =   14.000    mass and valenz                      
   RCORE  =    2.500    outmost cutoff radius                                   
   RWIGS  =    2.960; RWIGS  =    1.566    wigner-seitz radius (au A)           
   ENMAX  =  241.083; ENMIN  =  180.812 eV                                      
   ICORE  =        3    local potential                                         
   LCOR   =        T    correct aug charges                                     
   LPAW   =        T    paw PP                                                  
   EAUG   =  439.825                                                            
   DEXC   =    0.000                                                            
   RMAX   =    2.560    core radius for proj-oper                               
   RAUG   =    1.300    factor for augmentation sphere                          
   RDEP   =    2.659    radius for radial grids                                 
   RDEPT  =    2.046    core radius for aug-charge                              
                                                                                
   Atomic configuration                                                         
   12 entries                                                                   
     n  l   j            E        occ.                                          
     1  0  0.50    -29007.2859   2.0000                                         
     2  0  0.50     -4378.8056   2.0000                                         
     2  1  1.50     -3930.4293   6.0000                                         
     3  0  0.50      -845.0264   2.0000                                         
     3  1  1.50      -698.5725   6.0000                                         
     3  2  2.50      -473.2839  10.0000                                         
     4  0  0.50      -133.9036   2.0000                                         
     4  1  1.50       -89.6752   6.0000                                         
     4  2  2.50       -25.8375  10.0000                                         
     5  0  0.50       -10.5484   2.0000                                         
     5  1  0.50        -3.6940   2.0000                                         
     4  3  2.50        -2.7416   0.0000                                         
   Description                                                                  
     l       E           TYP  RCUT    TYP  RCUT                                 
     2    -25.8374624     23  2.500                                             
     2     -5.4423304     23  2.500                                             
     0    -10.5483727     23  2.500                                             
     0     13.6058260     23  2.500                                             
     1     -3.6939829     23  2.500                                             
     1      1.9821976     23  2.500                                             
     3     -1.3605826      7  2.500                                             
  local pseudopotential read in
  partial core-charges read in
  partial kinetic energy density read in
  atomic valenz-charges read in
  non local Contribution for L=           2  read in
    real space projection operators read in
  non local Contribution for L=           2  read in
    real space projection operators read in
  non local Contribution for L=           0  read in
    real space projection operators read in
  non local Contribution for L=           0  read in
    real space projection operators read in
  non local Contribution for L=           1  read in
    real space projection operators read in
  non local Contribution for L=           1  read in
    real space projection operators read in
    PAW grid and wavefunctions read in
 
   number of l-projection  operators is LMAX  =           6
   number of lm-projection operators is LMMAX =          18
 
 POTCAR:    PAW_PBE S 06Sep2000                   
   VRHFIN =S : s2p4                                                             
   LEXCH  = PE                                                                  
   EATOM  =   276.8230 eV,   20.3459 Ry                                         
                                                                                
   TITEL  = PAW_PBE S 06Sep2000                                                 
   LULTRA =        F    use ultrasoft PP ?                                      
   IUNSCR =        1    unscreen: 0-lin 1-nonlin 2-no                           
   RPACOR =    1.500    partial core radius                                     
   POMASS =   32.066; ZVAL   =    6.000    mass and valenz                      
   RCORE  =    1.900    outmost cutoff radius                                   
   RWIGS  =    2.200; RWIGS  =    1.164    wigner-seitz radius (au A)           
   ENMAX  =  258.689; ENMIN  =  194.016 eV                                      
   ICORE  =        2    local potential                                         
   LCOR   =        T    correct aug charges                                     
   LPAW   =        T    paw PP                                                  
   EAUG   =  335.092                                                            
   DEXC   =    0.000                                                            
   RMAX   =    1.942    core radius for proj-oper                               
   RAUG   =    1.300    factor for augmentation sphere                          
   RDEP   =    1.954    radius for radial grids                                 
   RDEPT  =    1.744    core radius for aug-charge                              
                                                                                
   Atomic configuration                                                         
    6 entries                                                                   
     n  l   j            E        occ.                                          
     1  0  0.50     -2405.8406   2.0000                                         
     2  0  0.50      -211.7007   2.0000                                         
     2  1  1.50      -156.4958   6.0000                                         
     3  0  0.50       -17.2562   2.0000                                         
     3  1  0.50        -7.0085   4.0000                                         
     3  2  1.50        -6.8029   0.0000                                         
   Description                                                                  
     l       E           TYP  RCUT    TYP  RCUT                                 
     0    -17.2561641     23  1.900                                             
     0    -15.8743224     23  1.900                                             
     1     -7.0085400     23  1.900                                             
     1     -2.7779785     23  1.900                                             
     2     -6.8029130     23  1.900                                             
  local pseudopotential read in
  partial core-charges read in
  partial kinetic energy density read in
  atomic valenz-charges read in
  non local Contribution for L=           0  read in
    real space projection operators read in
  non local Contribution for L=           0  read in
    real space projection operators read in
  non local Contribution for L=           1  read in
    real space projection operators read in
  non local Contribution for L=           1  read in
    real space projection operators read in
    PAW grid and wavefunctions read in
 
   number of l-projection  operators is LMAX  =           4
   number of lm-projection operators is LMMAX =           8
 
  PAW_PBE Cu_pv 06Sep2000               :
 energy of atom  1       EATOM=-4120.1201
 kinetic energy error for atom=    0.0655 (will be added to EATOM!!)
  PAW_PBE Zn 06Sep2000                  :
 energy of atom  2       EATOM=-1748.8345
 kinetic energy error for atom=    0.0029 (will be added to EATOM!!)
  PAW_PBE Sn_d 06Sep2000                :
 energy of atom  3       EATOM=-1893.1092
 kinetic energy error for atom=    0.0032 (will be added to EATOM!!)
  PAW_PBE S 06Sep2000                   :
 energy of atom  4       EATOM= -276.8230
 kinetic energy error for atom=    0.0020 (will be added to EATOM!!)
 
 
 POSCAR: Cu2ZnSnS4 (LaFond 2014, 293 K)          
  positions in direct lattice
  velocities in cartesian coordinates
 exchange correlation table for  LEXCH =        8
   RHO(1)=    0.500       N(1)  =     2000
   RHO(2)=  100.500       N(2)  =     4000
 


--------------------------------------------------------------------------------------------------------


 ion  position               nearest neighbor table
   1  0.000  0.000  0.000-   5 2.32   6 2.32   7 2.32   8 2.32
   2  0.750  0.250  0.500-   8 2.32   6 2.32   7 2.32   5 2.32
   3  0.500  0.500  0.000-   8 2.35   6 2.35   7 2.35   5 2.35
   4  0.250  0.750  0.500-   8 2.42   6 2.42   7 2.42   5 2.42
   5  0.118  0.134  0.244-   1 2.32   2 2.32   3 2.35   4 2.42
   6  0.639  0.623  0.244-   1 2.32   2 2.32   3 2.35   4 2.42
   7  0.866  0.361  0.756-   1 2.32   2 2.32   3 2.35   4 2.42
   8  0.377  0.882  0.756-   1 2.32   2 2.32   3 2.35   4 2.42
 
  LATTYP: Found a body centered tetragonal cell.
 ALAT       =     5.4353000000
 C/A-ratio  =     1.9955400000
  
  Lattice vectors:
  
 A1 = (   2.7176500000,  -2.7176500000,   5.4231792810)
 A2 = (  -2.7176500000,   2.7176500000,   5.4231792810)
 A3 = (  -2.7176500000,  -2.7176500000,  -5.4231792810)


Analysis of symmetry for initial positions (statically):
=====================================================================
 Subroutine PRICEL returns:
 Original cell was already a primitive cell.
 

 Routine SETGRP: Setting up the symmetry group for a 
 body centered tetragonal supercell.


 Subroutine GETGRP returns: Found  4 space group operations
 (whereof  4 operations were pure point group operations)
 out of a pool of 16 trial point group operations.


The static configuration has the point symmetry S_4 .


Analysis of symmetry for dynamics (positions and initial velocities):
=====================================================================
 Subroutine PRICEL returns:
 Original cell was already a primitive cell.
 

 Routine SETGRP: Setting up the symmetry group for a 
 body centered tetragonal supercell.


 Subroutine GETGRP returns: Found  4 space group operations
 (whereof  4 operations were pure point group operations)
 out of a pool of 16 trial point group operations.


The dynamic configuration has the point symmetry S_4 .


 Subroutine INISYM returns: Found  4 space group operations
 (whereof  4 operations are pure point group operations),
 and found     1 'primitive' translations

 
 
 KPOINTS: Automatically generated mesh SCF: 51 to 
  k-points in reciprocal lattice
Space group operators:
 irot       det(A)        alpha          n_x          n_y          n_z        tau_x        tau_y        tau_z
    1     1.000000     0.000000     1.000000     0.000000     0.000000     0.000000     0.000000     0.000000
    2    -1.000000    90.000000     0.000000     0.000000    -1.000000     0.000000     0.000000     0.000000
    3     1.000000   179.999999     0.000000     0.000000     1.000000     0.000000     0.000000     0.000000
    4    -1.000000    90.000000     0.000000     0.000000     1.000000     0.000000     0.000000     0.000000

 ----------------------------------------------------------------------------- 
|                                                                             |
|           W    W    AA    RRRRR   N    N  II  N    N   GGGG   !!!           |
|           W    W   A  A   R    R  NN   N  II  NN   N  G    G  !!!           |
|           W    W  A    A  R    R  N N  N  II  N N  N  G       !!!           |
|           W WW W  AAAAAA  RRRRR   N  N N  II  N  N N  G  GGG   !            |
|           WW  WW  A    A  R   R   N   NN  II  N   NN  G    G                |
|           W    W  A    A  R    R  N    N  II  N    N   GGGG   !!!           |
|                                                                             |
|      Your generating k-point grid is not commensurate to the symmetry       |
|      of the lattice.  This can cause   slow convergence with respect        |
|      to k-points for HF type calculations                                   |
|      suggested SOLUTIONS:                                                   |
|       ) if not already the case, use automatic k-point generation           |
|       ) shift your grid to Gamma (G) (e.g. required for hex or fcc lattice) |
|                                                                             |
 ----------------------------------------------------------------------------- 

 
 Subroutine IBZKPT_HF returns following result:
 ==============================================
 
 Found    886 k-points in 1st BZ
 the following    886 k-points will be used (e.g. in the exchange kernel)
 Following reciprocal coordinates:   # in IRBZ
  0.000000  0.000000  0.000000    0.00694444   1 t-inv F
  0.166667  0.000000  0.000000    0.00347222   2 t-inv F
  0.333333  0.000000  0.000000    0.00347222   3 t-inv F
  0.500000  0.000000  0.000000    0.00694444   4 t-inv F
  0.166667  0.166667  0.000000    0.00173611   5 t-inv F
  0.333333  0.166667  0.000000    0.00347222   6 t-inv F
  0.500000  0.166667  0.000000    0.00347222   7 t-inv F
 -0.333333  0.166667  0.000000    0.00173611   8 t-inv F
 -0.166667  0.166667  0.000000    0.00347222   9 t-inv F
  0.166667  0.333333  0.000000    0.00347222  10 t-inv F
  0.333333  0.333333  0.000000    0.00173611  11 t-inv F
  0.500000  0.333333  0.000000    0.00347222  12 t-inv F
 -0.333333  0.333333  0.000000    0.00347222  13 t-inv F
 -0.166667  0.333333  0.000000    0.00173611  14 t-inv F
  0.166667  0.500000  0.000000    0.00347222  15 t-inv F
  0.333333  0.500000  0.000000    0.00347222  16 t-inv F
  0.500000  0.500000  0.000000    0.00694444  17 t-inv F
  0.000000  0.000000  0.250000    0.00694444  18 t-inv F
  0.166667  0.000000  0.250000    0.00347222  19 t-inv F
  0.333333  0.000000  0.250000    0.00347222  20 t-inv F
  0.500000  0.000000  0.250000    0.00694444  21 t-inv F
 -0.333333  0.000000  0.250000    0.00347222  22 t-inv F
 -0.166667  0.000000  0.250000    0.00347222  23 t-inv F
  0.166667  0.166667  0.250000    0.00173611  24 t-inv F
  0.333333  0.166667  0.250000    0.00347222  25 t-inv F
  0.500000  0.166667  0.250000    0.00347222  26 t-inv F
 -0.333333  0.166667  0.250000    0.00173611  27 t-inv F
 -0.166667  0.166667  0.250000    0.00347222  28 t-inv F
  0.166667  0.333333  0.250000    0.00347222  29 t-inv F
  0.333333  0.333333  0.250000    0.00173611  30 t-inv F
  0.500000  0.333333  0.250000    0.00347222  31 t-inv F
 -0.333333  0.333333  0.250000    0.00347222  32 t-inv F
 -0.166667  0.333333  0.250000    0.00173611  33 t-inv F
  0.166667  0.500000  0.250000    0.00347222  34 t-inv F
  0.333333  0.500000  0.250000    0.00347222  35 t-inv F
  0.500000  0.500000  0.250000    0.00694444  36 t-inv F
  0.166667 -0.333333  0.250000    0.00173611  37 t-inv F
 -0.333333 -0.333333  0.250000    0.00173611  38 t-inv F
 -0.166667 -0.333333  0.250000    0.00347222  39 t-inv F
  0.333333 -0.166667  0.250000    0.00173611  40 t-inv F
 -0.333333 -0.166667  0.250000    0.00347222  41 t-inv F
 -0.166667 -0.166667  0.250000    0.00173611  42 t-inv F
  0.000000  0.000000  0.500000    0.00694444  43 t-inv F
  0.166667  0.000000  0.500000    0.00347222  44 t-inv F
  0.333333  0.000000  0.500000    0.00347222  45 t-inv F
  0.166667  0.166667  0.500000    0.00173611  46 t-inv F
 -0.333333  0.166667  0.500000    0.00173611  47 t-inv F
 -0.166667  0.166667  0.500000    0.00347222  48 t-inv F
  0.333333  0.333333  0.500000    0.00173611  49 t-inv F
 -0.333333  0.333333  0.500000    0.00347222  50 t-inv F
 -0.166667  0.333333  0.500000    0.00173611  51 t-inv F
  0.000000  0.000000  0.000000    0.00000000  52 t-inv F
  0.000000  0.003846  0.000000    0.00000000  53 t-inv F
  0.000000  0.007692  0.000000    0.00000000  54 t-inv F
  0.000000  0.011538  0.000000    0.00000000  55 t-inv F
  0.000000  0.015385  0.000000    0.00000000  56 t-inv F
  0.000000  0.019231  0.000000    0.00000000  57 t-inv F
  0.000000  0.023077  0.000000    0.00000000  58 t-inv F
  0.000000  0.026923  0.000000    0.00000000  59 t-inv F
  0.000000  0.030769  0.000000    0.00000000  60 t-inv F
  0.000000  0.034615  0.000000    0.00000000  61 t-inv F
  0.000000  0.038462  0.000000    0.00000000  62 t-inv F
  0.000000  0.042308  0.000000    0.00000000  63 t-inv F
  0.000000  0.046154  0.000000    0.00000000  64 t-inv F
  0.000000  0.050000  0.000000    0.00000000  65 t-inv F
  0.000000  0.053846  0.000000    0.00000000  66 t-inv F
  0.000000  0.057692  0.000000    0.00000000  67 t-inv F
  0.000000  0.061538  0.000000    0.00000000  68 t-inv F
  0.000000  0.065385  0.000000    0.00000000  69 t-inv F
  0.000000  0.069231  0.000000    0.00000000  70 t-inv F
  0.000000  0.073077  0.000000    0.00000000  71 t-inv F
  0.000000  0.076923  0.000000    0.00000000  72 t-inv F
  0.000000  0.080769  0.000000    0.00000000  73 t-inv F
  0.000000  0.084615  0.000000    0.00000000  74 t-inv F
  0.000000  0.088462  0.000000    0.00000000  75 t-inv F
  0.000000  0.092308  0.000000    0.00000000  76 t-inv F
  0.000000  0.096154  0.000000    0.00000000  77 t-inv F
  0.000000  0.100000  0.000000    0.00000000  78 t-inv F
  0.000000  0.103846  0.000000    0.00000000  79 t-inv F
  0.000000  0.107692  0.000000    0.00000000  80 t-inv F
  0.000000  0.111538  0.000000    0.00000000  81 t-inv F
  0.000000  0.115385  0.000000    0.00000000  82 t-inv F
  0.000000  0.119231  0.000000    0.00000000  83 t-inv F
  0.000000  0.123077  0.000000    0.00000000  84 t-inv F
  0.000000  0.126923  0.000000    0.00000000  85 t-inv F
  0.000000  0.130769  0.000000    0.00000000  86 t-inv F
  0.000000  0.134615  0.000000    0.00000000  87 t-inv F
  0.000000  0.138462  0.000000    0.00000000  88 t-inv F
  0.000000  0.142308  0.000000    0.00000000  89 t-inv F
  0.000000  0.146154  0.000000    0.00000000  90 t-inv F
  0.000000  0.150000  0.000000    0.00000000  91 t-inv F
  0.000000  0.153846  0.000000    0.00000000  92 t-inv F
  0.000000  0.157692  0.000000    0.00000000  93 t-inv F
  0.000000  0.161538  0.000000    0.00000000  94 t-inv F
  0.000000  0.165385  0.000000    0.00000000  95 t-inv F
  0.000000  0.169231  0.000000    0.00000000  96 t-inv F
  0.000000  0.173077  0.000000    0.00000000  97 t-inv F
  0.000000  0.176923  0.000000    0.00000000  98 t-inv F
  0.000000  0.180769  0.000000    0.00000000  99 t-inv F
  0.000000  0.184615  0.000000    0.00000000 100 t-inv F
  0.000000  0.188462  0.000000    0.00000000 101 t-inv F
  0.000000  0.192308  0.000000    0.00000000 102 t-inv F
  0.000000  0.196154  0.000000    0.00000000 103 t-inv F
  0.000000  0.200000  0.000000    0.00000000 104 t-inv F
  0.000000  0.203846  0.000000    0.00000000 105 t-inv F
  0.000000  0.207692  0.000000    0.00000000 106 t-inv F
  0.000000  0.211538  0.000000    0.00000000 107 t-inv F
  0.000000  0.215385  0.000000    0.00000000 108 t-inv F
  0.000000  0.219231  0.000000    0.00000000 109 t-inv F
  0.000000  0.223077  0.000000    0.00000000 110 t-inv F
  0.000000  0.226923  0.000000    0.00000000 111 t-inv F
  0.000000  0.230769  0.000000    0.00000000 112 t-inv F
  0.000000  0.234615  0.000000    0.00000000 113 t-inv F
  0.000000  0.238462  0.000000    0.00000000 114 t-inv F
  0.000000  0.242308  0.000000    0.00000000 115 t-inv F
  0.000000  0.246154  0.000000    0.00000000 116 t-inv F
  0.000000  0.250000  0.000000    0.00000000 117 t-inv F
  0.000000  0.253846  0.000000    0.00000000 118 t-inv F
  0.000000  0.257692  0.000000    0.00000000 119 t-inv F
  0.000000  0.261538  0.000000    0.00000000 120 t-inv F
  0.000000  0.265385  0.000000    0.00000000 121 t-inv F
  0.000000  0.269231  0.000000    0.00000000 122 t-inv F
  0.000000  0.273077  0.000000    0.00000000 123 t-inv F
  0.000000  0.276923  0.000000    0.00000000 124 t-inv F
  0.000000  0.280769  0.000000    0.00000000 125 t-inv F
  0.000000  0.284615  0.000000    0.00000000 126 t-inv F
  0.000000  0.288462  0.000000    0.00000000 127 t-inv F
  0.000000  0.292308  0.000000    0.00000000 128 t-inv F
  0.000000  0.296154  0.000000    0.00000000 129 t-inv F
  0.000000  0.300000  0.000000    0.00000000 130 t-inv F
  0.000000  0.303846  0.000000    0.00000000 131 t-inv F
  0.000000  0.307692  0.000000    0.00000000 132 t-inv F
  0.000000  0.311538  0.000000    0.00000000 133 t-inv F
  0.000000  0.315385  0.000000    0.00000000 134 t-inv F
  0.000000  0.319231  0.000000    0.00000000 135 t-inv F
  0.000000  0.323077  0.000000    0.00000000 136 t-inv F
  0.000000  0.326923  0.000000    0.00000000 137 t-inv F
  0.000000  0.330769  0.000000    0.00000000 138 t-inv F
  0.000000  0.334615  0.000000    0.00000000 139 t-inv F
  0.000000  0.338462  0.000000    0.00000000 140 t-inv F
  0.000000  0.342308  0.000000    0.00000000 141 t-inv F
  0.000000  0.346154  0.000000    0.00000000 142 t-inv F
  0.000000  0.350000  0.000000    0.00000000 143 t-inv F
  0.000000  0.353846  0.000000    0.00000000 144 t-inv F
  0.000000  0.357692  0.000000    0.00000000 145 t-inv F
  0.000000  0.361538  0.000000    0.00000000 146 t-inv F
  0.000000  0.365385  0.000000    0.00000000 147 t-inv F
  0.000000  0.369231  0.000000    0.00000000 148 t-inv F
  0.000000  0.373077  0.000000    0.00000000 149 t-inv F
  0.000000  0.376923  0.000000    0.00000000 150 t-inv F
  0.000000  0.380769  0.000000    0.00000000 151 t-inv F
  0.000000  0.384615  0.000000    0.00000000 152 t-inv F
  0.000000  0.388462  0.000000    0.00000000 153 t-inv F
  0.000000  0.392308  0.000000    0.00000000 154 t-inv F
  0.000000  0.396154  0.000000    0.00000000 155 t-inv F
  0.000000  0.400000  0.000000    0.00000000 156 t-inv F
  0.000000  0.403846  0.000000    0.00000000 157 t-inv F
  0.000000  0.407692  0.000000    0.00000000 158 t-inv F
  0.000000  0.411538  0.000000    0.00000000 159 t-inv F
  0.000000  0.415385  0.000000    0.00000000 160 t-inv F
  0.000000  0.419231  0.000000    0.00000000 161 t-inv F
  0.000000  0.423077  0.000000    0.00000000 162 t-inv F
  0.000000  0.426923  0.000000    0.00000000 163 t-inv F
  0.000000  0.430769  0.000000    0.00000000 164 t-inv F
  0.000000  0.434615  0.000000    0.00000000 165 t-inv F
  0.000000  0.438462  0.000000    0.00000000 166 t-inv F
  0.000000  0.442308  0.000000    0.00000000 167 t-inv F
  0.000000  0.446154  0.000000    0.00000000 168 t-inv F
  0.000000  0.450000  0.000000    0.00000000 169 t-inv F
  0.000000  0.453846  0.000000    0.00000000 170 t-inv F
  0.000000  0.457692  0.000000    0.00000000 171 t-inv F
  0.000000  0.461538  0.000000    0.00000000 172 t-inv F
  0.000000  0.465385  0.000000    0.00000000 173 t-inv F
  0.000000  0.469231  0.000000    0.00000000 174 t-inv F
  0.000000  0.473077  0.000000    0.00000000 175 t-inv F
  0.000000  0.476923  0.000000    0.00000000 176 t-inv F
  0.000000  0.480769  0.000000    0.00000000 177 t-inv F
  0.000000  0.484615  0.000000    0.00000000 178 t-inv F
  0.000000  0.488462  0.000000    0.00000000 179 t-inv F
  0.000000  0.492308  0.000000    0.00000000 180 t-inv F
  0.000000  0.496154  0.000000    0.00000000 181 t-inv F
  0.000000  0.500000  0.000000    0.00000000 182 t-inv F
  0.003846  0.500000  0.000000    0.00000000 183 t-inv F
  0.007692  0.500000  0.000000    0.00000000 184 t-inv F
  0.011538  0.500000  0.000000    0.00000000 185 t-inv F
  0.015385  0.500000  0.000000    0.00000000 186 t-inv F
  0.019231  0.500000  0.000000    0.00000000 187 t-inv F
  0.023077  0.500000  0.000000    0.00000000 188 t-inv F
  0.026923  0.500000  0.000000    0.00000000 189 t-inv F
  0.030769  0.500000  0.000000    0.00000000 190 t-inv F
  0.034615  0.500000  0.000000    0.00000000 191 t-inv F
  0.038462  0.500000  0.000000    0.00000000 192 t-inv F
  0.042308  0.500000  0.000000    0.00000000 193 t-inv F
  0.046154  0.500000  0.000000    0.00000000 194 t-inv F
  0.050000  0.500000  0.000000    0.00000000 195 t-inv F
  0.053846  0.500000  0.000000    0.00000000 196 t-inv F
  0.057692  0.500000  0.000000    0.00000000 197 t-inv F
  0.061538  0.500000  0.000000    0.00000000 198 t-inv F
  0.065385  0.500000  0.000000    0.00000000 199 t-inv F
  0.069231  0.500000  0.000000    0.00000000 200 t-inv F
  0.073077  0.500000  0.000000    0.00000000 201 t-inv F
  0.076923  0.500000  0.000000    0.00000000 202 t-inv F
  0.080769  0.500000  0.000000    0.00000000 203 t-inv F
  0.084615  0.500000  0.000000    0.00000000 204 t-inv F
  0.088462  0.500000  0.000000    0.00000000 205 t-inv F
  0.092308  0.500000  0.000000    0.00000000 206 t-inv F
  0.096154  0.500000  0.000000    0.00000000 207 t-inv F
  0.100000  0.500000  0.000000    0.00000000 208 t-inv F
  0.103846  0.500000  0.000000    0.00000000 209 t-inv F
  0.107692  0.500000  0.000000    0.00000000 210 t-inv F
  0.111538  0.500000  0.000000    0.00000000 211 t-inv F
  0.115385  0.500000  0.000000    0.00000000 212 t-inv F
  0.119231  0.500000  0.000000    0.00000000 213 t-inv F
  0.123077  0.500000  0.000000    0.00000000 214 t-inv F
  0.126923  0.500000  0.000000    0.00000000 215 t-inv F
  0.130769  0.500000  0.000000    0.00000000 216 t-inv F
  0.134615  0.500000  0.000000    0.00000000 217 t-inv F
  0.138462  0.500000  0.000000    0.00000000 218 t-inv F
  0.142308  0.500000  0.000000    0.00000000 219 t-inv F
  0.146154  0.500000  0.000000    0.00000000 220 t-inv F
  0.150000  0.500000  0.000000    0.00000000 221 t-inv F
  0.153846  0.500000  0.000000    0.00000000 222 t-inv F
  0.157692  0.500000  0.000000    0.00000000 223 t-inv F
  0.161538  0.500000  0.000000    0.00000000 224 t-inv F
  0.165385  0.500000  0.000000    0.00000000 225 t-inv F
  0.169231  0.500000  0.000000    0.00000000 226 t-inv F
  0.173077  0.500000  0.000000    0.00000000 227 t-inv F
  0.176923  0.500000  0.000000    0.00000000 228 t-inv F
  0.180769  0.500000  0.000000    0.00000000 229 t-inv F
  0.184615  0.500000  0.000000    0.00000000 230 t-inv F
  0.188462  0.500000  0.000000    0.00000000 231 t-inv F
  0.192308  0.500000  0.000000    0.00000000 232 t-inv F
  0.196154  0.500000  0.000000    0.00000000 233 t-inv F
  0.200000  0.500000  0.000000    0.00000000 234 t-inv F
  0.203846  0.500000  0.000000    0.00000000 235 t-inv F
  0.207692  0.500000  0.000000    0.00000000 236 t-inv F
  0.211538  0.500000  0.000000    0.00000000 237 t-inv F
  0.215385  0.500000  0.000000    0.00000000 238 t-inv F
  0.219231  0.500000  0.000000    0.00000000 239 t-inv F
  0.223077  0.500000  0.000000    0.00000000 240 t-inv F
  0.226923  0.500000  0.000000    0.00000000 241 t-inv F
  0.230769  0.500000  0.000000    0.00000000 242 t-inv F
  0.234615  0.500000  0.000000    0.00000000 243 t-inv F
  0.238462  0.500000  0.000000    0.00000000 244 t-inv F
  0.242308  0.500000  0.000000    0.00000000 245 t-inv F
  0.246154  0.500000  0.000000    0.00000000 246 t-inv F
  0.250000  0.500000  0.000000    0.00000000 247 t-inv F
  0.253846  0.500000  0.000000    0.00000000 248 t-inv F
  0.257692  0.500000  0.000000    0.00000000 249 t-inv F
  0.261538  0.500000  0.000000    0.00000000 250 t-inv F
  0.265385  0.500000  0.000000    0.00000000 251 t-inv F
  0.269231  0.500000  0.000000    0.00000000 252 t-inv F
  0.273077  0.500000  0.000000    0.00000000 253 t-inv F
  0.276923  0.500000  0.000000    0.00000000 254 t-inv F
  0.280769  0.500000  0.000000    0.00000000 255 t-inv F
  0.284615  0.500000  0.000000    0.00000000 256 t-inv F
  0.288462  0.500000  0.000000    0.00000000 257 t-inv F
  0.292308  0.500000  0.000000    0.00000000 258 t-inv F
  0.296154  0.500000  0.000000    0.00000000 259 t-inv F
  0.300000  0.500000  0.000000    0.00000000 260 t-inv F
  0.303846  0.500000  0.000000    0.00000000 261 t-inv F
  0.307692  0.500000  0.000000    0.00000000 262 t-inv F
  0.311538  0.500000  0.000000    0.00000000 263 t-inv F
  0.315385  0.500000  0.000000    0.00000000 264 t-inv F
  0.319231  0.500000  0.000000    0.00000000 265 t-inv F
  0.323077  0.500000  0.000000    0.00000000 266 t-inv F
  0.326923  0.500000  0.000000    0.00000000 267 t-inv F
  0.330769  0.500000  0.000000    0.00000000 268 t-inv F
  0.334615  0.500000  0.000000    0.00000000 269 t-inv F
  0.338462  0.500000  0.000000    0.00000000 270 t-inv F
  0.342308  0.500000  0.000000    0.00000000 271 t-inv F
  0.346154  0.500000  0.000000    0.00000000 272 t-inv F
  0.350000  0.500000  0.000000    0.00000000 273 t-inv F
  0.353846  0.500000  0.000000    0.00000000 274 t-inv F
  0.357692  0.500000  0.000000    0.00000000 275 t-inv F
  0.361538  0.500000  0.000000    0.00000000 276 t-inv F
  0.365385  0.500000  0.000000    0.00000000 277 t-inv F
  0.369231  0.500000  0.000000    0.00000000 278 t-inv F
  0.373077  0.500000  0.000000    0.00000000 279 t-inv F
  0.376923  0.500000  0.000000    0.00000000 280 t-inv F
  0.380769  0.500000  0.000000    0.00000000 281 t-inv F
  0.384615  0.500000  0.000000    0.00000000 282 t-inv F
  0.388462  0.500000  0.000000    0.00000000 283 t-inv F
  0.392308  0.500000  0.000000    0.00000000 284 t-inv F
  0.396154  0.500000  0.000000    0.00000000 285 t-inv F
  0.400000  0.500000  0.000000    0.00000000 286 t-inv F
  0.403846  0.500000  0.000000    0.00000000 287 t-inv F
  0.407692  0.500000  0.000000    0.00000000 288 t-inv F
  0.411538  0.500000  0.000000    0.00000000 289 t-inv F
  0.415385  0.500000  0.000000    0.00000000 290 t-inv F
  0.419231  0.500000  0.000000    0.00000000 291 t-inv F
  0.423077  0.500000  0.000000    0.00000000 292 t-inv F
  0.426923  0.500000  0.000000    0.00000000 293 t-inv F
  0.430769  0.500000  0.000000    0.00000000 294 t-inv F
  0.434615  0.500000  0.000000    0.00000000 295 t-inv F
  0.438462  0.500000  0.000000    0.00000000 296 t-inv F
  0.442308  0.500000  0.000000    0.00000000 297 t-inv F
  0.446154  0.500000  0.000000    0.00000000 298 t-inv F
  0.450000  0.500000  0.000000    0.00000000 299 t-inv F
  0.453846  0.500000  0.000000    0.00000000 300 t-inv F
  0.457692  0.500000  0.000000    0.00000000 301 t-inv F
  0.461538  0.500000  0.000000    0.00000000 302 t-inv F
  0.465385  0.500000  0.000000    0.00000000 303 t-inv F
  0.469231  0.500000  0.000000    0.00000000 304 t-inv F
  0.473077  0.500000  0.000000    0.00000000 305 t-inv F
  0.476923  0.500000  0.000000    0.00000000 306 t-inv F
  0.480769  0.500000  0.000000    0.00000000 307 t-inv F
  0.484615  0.500000  0.000000    0.00000000 308 t-inv F
  0.488462  0.500000  0.000000    0.00000000 309 t-inv F
  0.492308  0.500000  0.000000    0.00000000 310 t-inv F
  0.496154  0.500000  0.000000    0.00000000 311 t-inv F
  0.500000  0.500000  0.000000    0.00000000 312 t-inv F
  0.497268  0.497268  0.000000    0.00000000 313 t-inv F
  0.494536  0.494536  0.000000    0.00000000 314 t-inv F
  0.491803  0.491803  0.000000    0.00000000 315 t-inv F
  0.489071  0.489071  0.000000    0.00000000 316 t-inv F
  0.486339  0.486339  0.000000    0.00000000 317 t-inv F
  0.483607  0.483607  0.000000    0.00000000 318 t-inv F
  0.480874  0.480874  0.000000    0.00000000 319 t-inv F
  0.478142  0.478142  0.000000    0.00000000 320 t-inv F
  0.475410  0.475410  0.000000    0.00000000 321 t-inv F
  0.472678  0.472678  0.000000    0.00000000 322 t-inv F
  0.469945  0.469945  0.000000    0.00000000 323 t-inv F
  0.467213  0.467213  0.000000    0.00000000 324 t-inv F
  0.464481  0.464481  0.000000    0.00000000 325 t-inv F
  0.461749  0.461749  0.000000    0.00000000 326 t-inv F
  0.459016  0.459016  0.000000    0.00000000 327 t-inv F
  0.456284  0.456284  0.000000    0.00000000 328 t-inv F
  0.453552  0.453552  0.000000    0.00000000 329 t-inv F
  0.450820  0.450820  0.000000    0.00000000 330 t-inv F
  0.448087  0.448087  0.000000    0.00000000 331 t-inv F
  0.445355  0.445355  0.000000    0.00000000 332 t-inv F
  0.442623  0.442623  0.000000    0.00000000 333 t-inv F
  0.439891  0.439891  0.000000    0.00000000 334 t-inv F
  0.437158  0.437158  0.000000    0.00000000 335 t-inv F
  0.434426  0.434426  0.000000    0.00000000 336 t-inv F
  0.431694  0.431694  0.000000    0.00000000 337 t-inv F
  0.428962  0.428962  0.000000    0.00000000 338 t-inv F
  0.426230  0.426230  0.000000    0.00000000 339 t-inv F
  0.423497  0.423497  0.000000    0.00000000 340 t-inv F
  0.420765  0.420765  0.000000    0.00000000 341 t-inv F
  0.418033  0.418033  0.000000    0.00000000 342 t-inv F
  0.415301  0.415301  0.000000    0.00000000 343 t-inv F
  0.412568  0.412568  0.000000    0.00000000 344 t-inv F
  0.409836  0.409836  0.000000    0.00000000 345 t-inv F
  0.407104  0.407104  0.000000    0.00000000 346 t-inv F
  0.404372  0.404372  0.000000    0.00000000 347 t-inv F
  0.401639  0.401639  0.000000    0.00000000 348 t-inv F
  0.398907  0.398907  0.000000    0.00000000 349 t-inv F
  0.396175  0.396175  0.000000    0.00000000 350 t-inv F
  0.393443  0.393443  0.000000    0.00000000 351 t-inv F
  0.390710  0.390710  0.000000    0.00000000 352 t-inv F
  0.387978  0.387978  0.000000    0.00000000 353 t-inv F
  0.385246  0.385246  0.000000    0.00000000 354 t-inv F
  0.382514  0.382514  0.000000    0.00000000 355 t-inv F
  0.379781  0.379781  0.000000    0.00000000 356 t-inv F
  0.377049  0.377049  0.000000    0.00000000 357 t-inv F
  0.374317  0.374317  0.000000    0.00000000 358 t-inv F
  0.371585  0.371585  0.000000    0.00000000 359 t-inv F
  0.368852  0.368852  0.000000    0.00000000 360 t-inv F
  0.366120  0.366120  0.000000    0.00000000 361 t-inv F
  0.363388  0.363388  0.000000    0.00000000 362 t-inv F
  0.360656  0.360656  0.000000    0.00000000 363 t-inv F
  0.357924  0.357924  0.000000    0.00000000 364 t-inv F
  0.355191  0.355191  0.000000    0.00000000 365 t-inv F
  0.352459  0.352459  0.000000    0.00000000 366 t-inv F
  0.349727  0.349727  0.000000    0.00000000 367 t-inv F
  0.346995  0.346995  0.000000    0.00000000 368 t-inv F
  0.344262  0.344262  0.000000    0.00000000 369 t-inv F
  0.341530  0.341530  0.000000    0.00000000 370 t-inv F
  0.338798  0.338798  0.000000    0.00000000 371 t-inv F
  0.336066  0.336066  0.000000    0.00000000 372 t-inv F
  0.333333  0.333333  0.000000    0.00000000 373 t-inv F
  0.330601  0.330601  0.000000    0.00000000 374 t-inv F
  0.327869  0.327869  0.000000    0.00000000 375 t-inv F
  0.325137  0.325137  0.000000    0.00000000 376 t-inv F
  0.322404  0.322404  0.000000    0.00000000 377 t-inv F
  0.319672  0.319672  0.000000    0.00000000 378 t-inv F
  0.316940  0.316940  0.000000    0.00000000 379 t-inv F
  0.314208  0.314208  0.000000    0.00000000 380 t-inv F
  0.311475  0.311475  0.000000    0.00000000 381 t-inv F
  0.308743  0.308743  0.000000    0.00000000 382 t-inv F
  0.306011  0.306011  0.000000    0.00000000 383 t-inv F
  0.303279  0.303279  0.000000    0.00000000 384 t-inv F
  0.300546  0.300546  0.000000    0.00000000 385 t-inv F
  0.297814  0.297814  0.000000    0.00000000 386 t-inv F
  0.295082  0.295082  0.000000    0.00000000 387 t-inv F
  0.292350  0.292350  0.000000    0.00000000 388 t-inv F
  0.289617  0.289617  0.000000    0.00000000 389 t-inv F
  0.286885  0.286885  0.000000    0.00000000 390 t-inv F
  0.284153  0.284153  0.000000    0.00000000 391 t-inv F
  0.281421  0.281421  0.000000    0.00000000 392 t-inv F
  0.278689  0.278689  0.000000    0.00000000 393 t-inv F
  0.275956  0.275956  0.000000    0.00000000 394 t-inv F
  0.273224  0.273224  0.000000    0.00000000 395 t-inv F
  0.270492  0.270492  0.000000    0.00000000 396 t-inv F
  0.267760  0.267760  0.000000    0.00000000 397 t-inv F
  0.265027  0.265027  0.000000    0.00000000 398 t-inv F
  0.262295  0.262295  0.000000    0.00000000 399 t-inv F
  0.259563  0.259563  0.000000    0.00000000 400 t-inv F
  0.256831  0.256831  0.000000    0.00000000 401 t-inv F
  0.254098  0.254098  0.000000    0.00000000 402 t-inv F
  0.251366  0.251366  0.000000    0.00000000 403 t-inv F
  0.248634  0.248634  0.000000    0.00000000 404 t-inv F
  0.245902  0.245902  0.000000    0.00000000 405 t-inv F
  0.243169  0.243169  0.000000    0.00000000 406 t-inv F
  0.240437  0.240437  0.000000    0.00000000 407 t-inv F
  0.237705  0.237705  0.000000    0.00000000 408 t-inv F
  0.234973  0.234973  0.000000    0.00000000 409 t-inv F
  0.232240  0.232240  0.000000    0.00000000 410 t-inv F
  0.229508  0.229508  0.000000    0.00000000 411 t-inv F
  0.226776  0.226776  0.000000    0.00000000 412 t-inv F
  0.224044  0.224044  0.000000    0.00000000 413 t-inv F
  0.221311  0.221311  0.000000    0.00000000 414 t-inv F
  0.218579  0.218579  0.000000    0.00000000 415 t-inv F
  0.215847  0.215847  0.000000    0.00000000 416 t-inv F
  0.213115  0.213115  0.000000    0.00000000 417 t-inv F
  0.210383  0.210383  0.000000    0.00000000 418 t-inv F
  0.207650  0.207650  0.000000    0.00000000 419 t-inv F
  0.204918  0.204918  0.000000    0.00000000 420 t-inv F
  0.202186  0.202186  0.000000    0.00000000 421 t-inv F
  0.199454  0.199454  0.000000    0.00000000 422 t-inv F
  0.196721  0.196721  0.000000    0.00000000 423 t-inv F
  0.193989  0.193989  0.000000    0.00000000 424 t-inv F
  0.191257  0.191257  0.000000    0.00000000 425 t-inv F
  0.188525  0.188525  0.000000    0.00000000 426 t-inv F
  0.185792  0.185792  0.000000    0.00000000 427 t-inv F
  0.183060  0.183060  0.000000    0.00000000 428 t-inv F
  0.180328  0.180328  0.000000    0.00000000 429 t-inv F
  0.177596  0.177596  0.000000    0.00000000 430 t-inv F
  0.174863  0.174863  0.000000    0.00000000 431 t-inv F
  0.172131  0.172131  0.000000    0.00000000 432 t-inv F
  0.169399  0.169399  0.000000    0.00000000 433 t-inv F
  0.166667  0.166667  0.000000    0.00000000 434 t-inv F
  0.163934  0.163934  0.000000    0.00000000 435 t-inv F
  0.161202  0.161202  0.000000    0.00000000 436 t-inv F
  0.158470  0.158470  0.000000    0.00000000 437 t-inv F
  0.155738  0.155738  0.000000    0.00000000 438 t-inv F
  0.153005  0.153005  0.000000    0.00000000 439 t-inv F
  0.150273  0.150273  0.000000    0.00000000 440 t-inv F
  0.147541  0.147541  0.000000    0.00000000 441 t-inv F
  0.144809  0.144809  0.000000    0.00000000 442 t-inv F
  0.142076  0.142076  0.000000    0.00000000 443 t-inv F
  0.139344  0.139344  0.000000    0.00000000 444 t-inv F
  0.136612  0.136612  0.000000    0.00000000 445 t-inv F
  0.133880  0.133880  0.000000    0.00000000 446 t-inv F
  0.131148  0.131148  0.000000    0.00000000 447 t-inv F
  0.128415  0.128415  0.000000    0.00000000 448 t-inv F
  0.125683  0.125683  0.000000    0.00000000 449 t-inv F
  0.122951  0.122951  0.000000    0.00000000 450 t-inv F
  0.120219  0.120219  0.000000    0.00000000 451 t-inv F
  0.117486  0.117486  0.000000    0.00000000 452 t-inv F
  0.114754  0.114754  0.000000    0.00000000 453 t-inv F
  0.112022  0.112022  0.000000    0.00000000 454 t-inv F
  0.109290  0.109290  0.000000    0.00000000 455 t-inv F
  0.106557  0.106557  0.000000    0.00000000 456 t-inv F
  0.103825  0.103825  0.000000    0.00000000 457 t-inv F
  0.101093  0.101093  0.000000    0.00000000 458 t-inv F
  0.098361  0.098361  0.000000    0.00000000 459 t-inv F
  0.095628  0.095628  0.000000    0.00000000 460 t-inv F
  0.092896  0.092896  0.000000    0.00000000 461 t-inv F
  0.090164  0.090164  0.000000    0.00000000 462 t-inv F
  0.087432  0.087432  0.000000    0.00000000 463 t-inv F
  0.084699  0.084699  0.000000    0.00000000 464 t-inv F
  0.081967  0.081967  0.000000    0.00000000 465 t-inv F
  0.079235  0.079235  0.000000    0.00000000 466 t-inv F
  0.076503  0.076503  0.000000    0.00000000 467 t-inv F
  0.073770  0.073770  0.000000    0.00000000 468 t-inv F
  0.071038  0.071038  0.000000    0.00000000 469 t-inv F
  0.068306  0.068306  0.000000    0.00000000 470 t-inv F
  0.065574  0.065574  0.000000    0.00000000 471 t-inv F
  0.062842  0.062842  0.000000    0.00000000 472 t-inv F
  0.060109  0.060109  0.000000    0.00000000 473 t-inv F
  0.057377  0.057377  0.000000    0.00000000 474 t-inv F
  0.054645  0.054645  0.000000    0.00000000 475 t-inv F
  0.051913  0.051913  0.000000    0.00000000 476 t-inv F
  0.049180  0.049180  0.000000    0.00000000 477 t-inv F
  0.046448  0.046448  0.000000    0.00000000 478 t-inv F
  0.043716  0.043716  0.000000    0.00000000 479 t-inv F
  0.040984  0.040984  0.000000    0.00000000 480 t-inv F
  0.038251  0.038251  0.000000    0.00000000 481 t-inv F
  0.035519  0.035519  0.000000    0.00000000 482 t-inv F
  0.032787  0.032787  0.000000    0.00000000 483 t-inv F
  0.030055  0.030055  0.000000    0.00000000 484 t-inv F
  0.027322  0.027322  0.000000    0.00000000 485 t-inv F
  0.024590  0.024590  0.000000    0.00000000 486 t-inv F
  0.021858  0.021858  0.000000    0.00000000 487 t-inv F
  0.019126  0.019126  0.000000    0.00000000 488 t-inv F
  0.016393  0.016393  0.000000    0.00000000 489 t-inv F
  0.013661  0.013661  0.000000    0.00000000 490 t-inv F
  0.010929  0.010929  0.000000    0.00000000 491 t-inv F
  0.008197  0.008197  0.000000    0.00000000 492 t-inv F
  0.005464  0.005464  0.000000    0.00000000 493 t-inv F
  0.002732  0.002732  0.000000    0.00000000 494 t-inv F
  0.000000  0.000000  0.000000    0.00000000 495 t-inv F
  0.000000  0.000000  0.004717    0.00000000 496 t-inv F
  0.000000  0.000000  0.009434    0.00000000 497 t-inv F
  0.000000  0.000000  0.014151    0.00000000 498 t-inv F
  0.000000  0.000000  0.018868    0.00000000 499 t-inv F
  0.000000  0.000000  0.023585    0.00000000 500 t-inv F
  0.000000  0.000000  0.028302    0.00000000 501 t-inv F
  0.000000  0.000000  0.033019    0.00000000 502 t-inv F
  0.000000  0.000000  0.037736    0.00000000 503 t-inv F
  0.000000  0.000000  0.042453    0.00000000 504 t-inv F
  0.000000  0.000000  0.047170    0.00000000 505 t-inv F
  0.000000  0.000000  0.051887    0.00000000 506 t-inv F
  0.000000  0.000000  0.056604    0.00000000 507 t-inv F
  0.000000  0.000000  0.061321    0.00000000 508 t-inv F
  0.000000  0.000000  0.066038    0.00000000 509 t-inv F
  0.000000  0.000000  0.070755    0.00000000 510 t-inv F
  0.000000  0.000000  0.075472    0.00000000 511 t-inv F
  0.000000  0.000000  0.080189    0.00000000 512 t-inv F
  0.000000  0.000000  0.084906    0.00000000 513 t-inv F
  0.000000  0.000000  0.089623    0.00000000 514 t-inv F
  0.000000  0.000000  0.094340    0.00000000 515 t-inv F
  0.000000  0.000000  0.099057    0.00000000 516 t-inv F
  0.000000  0.000000  0.103774    0.00000000 517 t-inv F
  0.000000  0.000000  0.108491    0.00000000 518 t-inv F
  0.000000  0.000000  0.113208    0.00000000 519 t-inv F
  0.000000  0.000000  0.117925    0.00000000 520 t-inv F
  0.000000  0.000000  0.122642    0.00000000 521 t-inv F
  0.000000  0.000000  0.127359    0.00000000 522 t-inv F
  0.000000  0.000000  0.132075    0.00000000 523 t-inv F
  0.000000  0.000000  0.136792    0.00000000 524 t-inv F
  0.000000  0.000000  0.141509    0.00000000 525 t-inv F
  0.000000  0.000000  0.146226    0.00000000 526 t-inv F
  0.000000  0.000000  0.150943    0.00000000 527 t-inv F
  0.000000  0.000000  0.155660    0.00000000 528 t-inv F
  0.000000  0.000000  0.160377    0.00000000 529 t-inv F
  0.000000  0.000000  0.165094    0.00000000 530 t-inv F
  0.000000  0.000000  0.169811    0.00000000 531 t-inv F
  0.000000  0.000000  0.174528    0.00000000 532 t-inv F
  0.000000  0.000000  0.179245    0.00000000 533 t-inv F
  0.000000  0.000000  0.183962    0.00000000 534 t-inv F
  0.000000  0.000000  0.188679    0.00000000 535 t-inv F
  0.000000  0.000000  0.193396    0.00000000 536 t-inv F
  0.000000  0.000000  0.198113    0.00000000 537 t-inv F
  0.000000  0.000000  0.202830    0.00000000 538 t-inv F
  0.000000  0.000000  0.207547    0.00000000 539 t-inv F
  0.000000  0.000000  0.212264    0.00000000 540 t-inv F
  0.000000  0.000000  0.216981    0.00000000 541 t-inv F
  0.000000  0.000000  0.221698    0.00000000 542 t-inv F
  0.000000  0.000000  0.226415    0.00000000 543 t-inv F
  0.000000  0.000000  0.231132    0.00000000 544 t-inv F
  0.000000  0.000000  0.235849    0.00000000 545 t-inv F
  0.000000  0.000000  0.240566    0.00000000 546 t-inv F
  0.000000  0.000000  0.245283    0.00000000 547 t-inv F
  0.000000  0.000000  0.250000    0.00000000 548 t-inv F
  0.000000  0.000000  0.254717    0.00000000 549 t-inv F
  0.000000  0.000000  0.259434    0.00000000 550 t-inv F
  0.000000  0.000000  0.264151    0.00000000 551 t-inv F
  0.000000  0.000000  0.268868    0.00000000 552 t-inv F
  0.000000  0.000000  0.273585    0.00000000 553 t-inv F
  0.000000  0.000000  0.278302    0.00000000 554 t-inv F
  0.000000  0.000000  0.283019    0.00000000 555 t-inv F
  0.000000  0.000000  0.287736    0.00000000 556 t-inv F
  0.000000  0.000000  0.292453    0.00000000 557 t-inv F
  0.000000  0.000000  0.297170    0.00000000 558 t-inv F
  0.000000  0.000000  0.301887    0.00000000 559 t-inv F
  0.000000  0.000000  0.306604    0.00000000 560 t-inv F
  0.000000  0.000000  0.311321    0.00000000 561 t-inv F
  0.000000  0.000000  0.316038    0.00000000 562 t-inv F
  0.000000  0.000000  0.320755    0.00000000 563 t-inv F
  0.000000  0.000000  0.325472    0.00000000 564 t-inv F
  0.000000  0.000000  0.330189    0.00000000 565 t-inv F
  0.000000  0.000000  0.334906    0.00000000 566 t-inv F
  0.000000  0.000000  0.339623    0.00000000 567 t-inv F
  0.000000  0.000000  0.344340    0.00000000 568 t-inv F
  0.000000  0.000000  0.349057    0.00000000 569 t-inv F
  0.000000  0.000000  0.353774    0.00000000 570 t-inv F
  0.000000  0.000000  0.358491    0.00000000 571 t-inv F
  0.000000  0.000000  0.363208    0.00000000 572 t-inv F
  0.000000  0.000000  0.367925    0.00000000 573 t-inv F
  0.000000  0.000000  0.372642    0.00000000 574 t-inv F
  0.000000  0.000000  0.377358    0.00000000 575 t-inv F
  0.000000  0.000000  0.382075    0.00000000 576 t-inv F
  0.000000  0.000000  0.386792    0.00000000 577 t-inv F
  0.000000  0.000000  0.391509    0.00000000 578 t-inv F
  0.000000  0.000000  0.396226    0.00000000 579 t-inv F
  0.000000  0.000000  0.400943    0.00000000 580 t-inv F
  0.000000  0.000000  0.405660    0.00000000 581 t-inv F
  0.000000  0.000000  0.410377    0.00000000 582 t-inv F
  0.000000  0.000000  0.415094    0.00000000 583 t-inv F
  0.000000  0.000000  0.419811    0.00000000 584 t-inv F
  0.000000  0.000000  0.424528    0.00000000 585 t-inv F
  0.000000  0.000000  0.429245    0.00000000 586 t-inv F
  0.000000  0.000000  0.433962    0.00000000 587 t-inv F
  0.000000  0.000000  0.438679    0.00000000 588 t-inv F
  0.000000  0.000000  0.443396    0.00000000 589 t-inv F
  0.000000  0.000000  0.448113    0.00000000 590 t-inv F
  0.000000  0.000000  0.452830    0.00000000 591 t-inv F
  0.000000  0.000000  0.457547    0.00000000 592 t-inv F
  0.000000  0.000000  0.462264    0.00000000 593 t-inv F
  0.000000  0.000000  0.466981    0.00000000 594 t-inv F
  0.000000  0.000000  0.471698    0.00000000 595 t-inv F
  0.000000  0.000000  0.476415    0.00000000 596 t-inv F
  0.000000  0.000000  0.481132    0.00000000 597 t-inv F
  0.000000  0.000000  0.485849    0.00000000 598 t-inv F
  0.000000  0.000000  0.490566    0.00000000 599 t-inv F
  0.000000  0.000000  0.495283    0.00000000 600 t-inv F
  0.000000  0.000000  0.500000    0.00000000 601 t-inv F
  0.000000 -0.166667  0.000000    0.00347222   2 t-inv F
 -0.166667  0.000000 -0.166667    0.00347222   2 t-inv F
  0.000000  0.166667  0.166667    0.00347222   2 t-inv F
  0.000000 -0.333333  0.000000    0.00347222   3 t-inv F
 -0.333333  0.000000 -0.333333    0.00347222   3 t-inv F
  0.000000  0.333333  0.333333    0.00347222   3 t-inv F
  0.000000 -0.500000  0.000000    0.00694444   4 t-inv F
 -0.500000  0.000000 -0.500000    0.00694444   4 t-inv F
  0.000000  0.500000  0.500000    0.00694444   4 t-inv F
  0.166667 -0.166667  0.166667    0.00173611   5 t-inv F
 -0.166667 -0.166667 -0.333333    0.00173611   5 t-inv F
 -0.166667  0.166667  0.166667    0.00173611   5 t-inv F
  0.166667 -0.333333  0.166667    0.00347222   6 t-inv F
 -0.333333 -0.166667 -0.500000    0.00347222   6 t-inv F
 -0.166667  0.333333  0.333333    0.00347222   6 t-inv F
  0.166667 -0.500000  0.166667    0.00347222   7 t-inv F
 -0.500000 -0.166667 -0.666667    0.00347222   7 t-inv F
 -0.166667  0.500000  0.500000    0.00347222   7 t-inv F
  0.166667  0.333333  0.166667    0.00173611   8 t-inv F
  0.333333 -0.166667  0.166667    0.00173611   8 t-inv F
 -0.166667 -0.333333 -0.333333    0.00173611   8 t-inv F
  0.166667  0.166667  0.166667    0.00347222   9 t-inv F
  0.166667 -0.166667  0.000000    0.00347222   9 t-inv F
 -0.166667 -0.166667 -0.166667    0.00347222   9 t-inv F
  0.333333 -0.166667  0.333333    0.00347222  10 t-inv F
 -0.166667 -0.333333 -0.500000    0.00347222  10 t-inv F
 -0.333333  0.166667  0.166667    0.00347222  10 t-inv F
  0.333333 -0.333333  0.333333    0.00173611  11 t-inv F
 -0.333333 -0.333333 -0.666667    0.00173611  11 t-inv F
 -0.333333  0.333333  0.333333    0.00173611  11 t-inv F
  0.333333 -0.500000  0.333333    0.00347222  12 t-inv F
 -0.500000 -0.333333 -0.833333    0.00347222  12 t-inv F
 -0.333333  0.500000  0.500000    0.00347222  12 t-inv F
  0.333333  0.333333  0.333333    0.00347222  13 t-inv F
  0.333333 -0.333333  0.000000    0.00347222  13 t-inv F
 -0.333333 -0.333333 -0.333333    0.00347222  13 t-inv F
  0.333333  0.166667  0.333333    0.00173611  14 t-inv F
  0.166667 -0.333333 -0.166667    0.00173611  14 t-inv F
 -0.333333 -0.166667 -0.166667    0.00173611  14 t-inv F
  0.500000 -0.166667  0.500000    0.00347222  15 t-inv F
 -0.166667 -0.500000 -0.666667    0.00347222  15 t-inv F
 -0.500000  0.166667  0.166667    0.00347222  15 t-inv F
  0.500000 -0.333333  0.500000    0.00347222  16 t-inv F
 -0.333333 -0.500000 -0.833333    0.00347222  16 t-inv F
 -0.500000  0.333333  0.333333    0.00347222  16 t-inv F
  0.500000 -0.500000  0.500000    0.00694444  17 t-inv F
  0.000000  0.000000 -0.250000    0.00694444  18 t-inv F
  0.000000 -0.166667 -0.250000    0.00347222  19 t-inv F
 -0.166667  0.000000  0.083333    0.00347222  19 t-inv F
  0.000000  0.166667 -0.083333    0.00347222  19 t-inv F
  0.000000 -0.333333 -0.250000    0.00347222  20 t-inv F
 -0.333333  0.000000 -0.083333    0.00347222  20 t-inv F
  0.000000  0.333333  0.083333    0.00347222  20 t-inv F
  0.000000 -0.500000 -0.250000    0.00694444  21 t-inv F
 -0.500000  0.000000 -0.250000    0.00694444  21 t-inv F
  0.000000  0.500000  0.250000    0.00694444  21 t-inv F
  0.000000  0.333333 -0.250000    0.00347222  22 t-inv F
  0.333333  0.000000  0.583333    0.00347222  22 t-inv F
  0.000000 -0.333333 -0.583333    0.00347222  22 t-inv F
  0.000000  0.166667 -0.250000    0.00347222  23 t-inv F
  0.166667  0.000000  0.416667    0.00347222  23 t-inv F
  0.000000 -0.166667 -0.416667    0.00347222  23 t-inv F
  0.166667 -0.166667 -0.083333    0.00173611  24 t-inv F
 -0.166667 -0.166667 -0.083333    0.00173611  24 t-inv F
 -0.166667  0.166667 -0.083333    0.00173611  24 t-inv F
  0.166667 -0.333333 -0.083333    0.00347222  25 t-inv F
 -0.333333 -0.166667 -0.250000    0.00347222  25 t-inv F
 -0.166667  0.333333  0.083333    0.00347222  25 t-inv F
  0.166667 -0.500000 -0.083333    0.00347222  26 t-inv F
 -0.500000 -0.166667 -0.416667    0.00347222  26 t-inv F
 -0.166667  0.500000  0.250000    0.00347222  26 t-inv F
  0.166667  0.333333 -0.083333    0.00173611  27 t-inv F
  0.333333 -0.166667  0.416667    0.00173611  27 t-inv F
 -0.166667 -0.333333 -0.583333    0.00173611  27 t-inv F
  0.166667  0.166667 -0.083333    0.00347222  28 t-inv F
  0.166667 -0.166667  0.250000    0.00347222  28 t-inv F
 -0.166667 -0.166667 -0.416667    0.00347222  28 t-inv F
  0.333333 -0.166667  0.083333    0.00347222  29 t-inv F
 -0.166667 -0.333333 -0.250000    0.00347222  29 t-inv F
 -0.333333  0.166667 -0.083333    0.00347222  29 t-inv F
  0.333333 -0.333333  0.083333    0.00173611  30 t-inv F
 -0.333333 -0.333333 -0.416667    0.00173611  30 t-inv F
 -0.333333  0.333333  0.083333    0.00173611  30 t-inv F
  0.333333 -0.500000  0.083333    0.00347222  31 t-inv F
 -0.500000 -0.333333 -0.583333    0.00347222  31 t-inv F
 -0.333333  0.500000  0.250000    0.00347222  31 t-inv F
  0.333333  0.333333  0.083333    0.00347222  32 t-inv F
  0.333333 -0.333333  0.250000    0.00347222  32 t-inv F
 -0.333333 -0.333333 -0.583333    0.00347222  32 t-inv F
  0.333333  0.166667  0.083333    0.00173611  33 t-inv F
  0.166667 -0.333333  0.083333    0.00173611  33 t-inv F
 -0.333333 -0.166667 -0.416667    0.00173611  33 t-inv F
  0.500000 -0.166667  0.250000    0.00347222  34 t-inv F
 -0.166667 -0.500000 -0.416667    0.00347222  34 t-inv F
 -0.500000  0.166667 -0.083333    0.00347222  34 t-inv F
  0.500000 -0.333333  0.250000    0.00347222  35 t-inv F
 -0.333333 -0.500000 -0.583333    0.00347222  35 t-inv F
 -0.500000  0.333333  0.083333    0.00347222  35 t-inv F
 -0.333333 -0.166667 -0.583333    0.00173611  37 t-inv F
 -0.166667  0.333333  0.416667    0.00173611  37 t-inv F
  0.333333  0.166667 -0.083333    0.00173611  37 t-inv F
 -0.333333  0.333333 -0.583333    0.00173611  38 t-inv F
  0.333333  0.333333  0.916667    0.00173611  38 t-inv F
  0.333333 -0.333333 -0.583333    0.00173611  38 t-inv F
 -0.333333  0.166667 -0.583333    0.00347222  39 t-inv F
  0.166667  0.333333  0.750000    0.00347222  39 t-inv F
  0.333333 -0.166667 -0.416667    0.00347222  39 t-inv F
 -0.166667 -0.333333 -0.416667    0.00173611  40 t-inv F
 -0.333333  0.166667  0.083333    0.00173611  40 t-inv F
  0.166667  0.333333  0.083333    0.00173611  40 t-inv F
 -0.166667  0.333333 -0.416667    0.00347222  41 t-inv F
  0.333333  0.166667  0.750000    0.00347222  41 t-inv F
  0.166667 -0.333333 -0.583333    0.00347222  41 t-inv F
 -0.166667  0.166667 -0.416667    0.00173611  42 t-inv F
  0.166667  0.166667  0.583333    0.00173611  42 t-inv F
  0.166667 -0.166667 -0.416667    0.00173611  42 t-inv F
  0.000000 -0.166667 -0.500000    0.00347222  44 t-inv F
 -0.166667  0.000000  0.333333    0.00347222  44 t-inv F
  0.000000  0.166667 -0.333333    0.00347222  44 t-inv F
  0.000000 -0.333333 -0.500000    0.00347222  45 t-inv F
 -0.333333  0.000000  0.166667    0.00347222  45 t-inv F
  0.000000  0.333333 -0.166667    0.00347222  45 t-inv F
  0.166667 -0.166667 -0.333333    0.00173611  46 t-inv F
 -0.166667 -0.166667  0.166667    0.00173611  46 t-inv F
 -0.166667  0.166667 -0.333333    0.00173611  46 t-inv F
  0.166667  0.333333 -0.333333    0.00173611  47 t-inv F
  0.333333 -0.166667  0.666667    0.00173611  47 t-inv F
 -0.166667 -0.333333 -0.833333    0.00173611  47 t-inv F
  0.166667  0.166667 -0.333333    0.00347222  48 t-inv F
  0.166667 -0.166667  0.500000    0.00347222  48 t-inv F
 -0.166667 -0.166667 -0.666667    0.00347222  48 t-inv F
  0.333333 -0.333333 -0.166667    0.00173611  49 t-inv F
 -0.333333 -0.333333 -0.166667    0.00173611  49 t-inv F
 -0.333333  0.333333 -0.166667    0.00173611  49 t-inv F
  0.333333  0.333333 -0.166667    0.00347222  50 t-inv F
  0.333333 -0.333333  0.500000    0.00347222  50 t-inv F
 -0.333333 -0.333333 -0.833333    0.00347222  50 t-inv F
  0.333333  0.166667 -0.166667    0.00173611  51 t-inv F
  0.166667 -0.333333  0.333333    0.00173611  51 t-inv F
 -0.333333 -0.166667 -0.666667    0.00173611  51 t-inv F
 -0.166667  0.000000  0.000000    0.00347222   2 t-inv T
  0.000000  0.166667  0.000000    0.00347222   2 t-inv T
  0.166667  0.000000  0.166667    0.00347222   2 t-inv T
  0.000000 -0.166667 -0.166667    0.00347222   2 t-inv T
 -0.333333  0.000000  0.000000    0.00347222   3 t-inv T
  0.000000  0.333333  0.000000    0.00347222   3 t-inv T
  0.333333  0.000000  0.333333    0.00347222   3 t-inv T
  0.000000 -0.333333 -0.333333    0.00347222   3 t-inv T
 -0.166667 -0.166667  0.000000    0.00173611   5 t-inv T
 -0.166667  0.166667 -0.166667    0.00173611   5 t-inv T
  0.166667  0.166667  0.333333    0.00173611   5 t-inv T
  0.166667 -0.166667 -0.166667    0.00173611   5 t-inv T
 -0.333333 -0.166667  0.000000    0.00347222   6 t-inv T
 -0.166667  0.333333 -0.166667    0.00347222   6 t-inv T
  0.333333  0.166667  0.500000    0.00347222   6 t-inv T
  0.166667 -0.333333 -0.333333    0.00347222   6 t-inv T
 -0.500000 -0.166667  0.000000    0.00347222   7 t-inv T
 -0.166667  0.500000 -0.166667    0.00347222   7 t-inv T
  0.500000  0.166667  0.666667    0.00347222   7 t-inv T
  0.166667 -0.500000 -0.500000    0.00347222   7 t-inv T
  0.333333 -0.166667  0.000000    0.00173611   8 t-inv T
 -0.166667 -0.333333 -0.166667    0.00173611   8 t-inv T
 -0.333333  0.166667 -0.166667    0.00173611   8 t-inv T
  0.166667  0.333333  0.333333    0.00173611   8 t-inv T
 -0.166667 -0.333333  0.000000    0.00347222  10 t-inv T
 -0.333333  0.166667 -0.333333    0.00347222  10 t-inv T
  0.166667  0.333333  0.500000    0.00347222  10 t-inv T
  0.333333 -0.166667 -0.166667    0.00347222  10 t-inv T
 -0.333333 -0.333333  0.000000    0.00173611  11 t-inv T
 -0.333333  0.333333 -0.333333    0.00173611  11 t-inv T
  0.333333  0.333333  0.666667    0.00173611  11 t-inv T
  0.333333 -0.333333 -0.333333    0.00173611  11 t-inv T
 -0.500000 -0.333333  0.000000    0.00347222  12 t-inv T
 -0.333333  0.500000 -0.333333    0.00347222  12 t-inv T
  0.500000  0.333333  0.833333    0.00347222  12 t-inv T
  0.333333 -0.500000 -0.500000    0.00347222  12 t-inv T
  0.166667 -0.333333  0.000000    0.00173611  14 t-inv T
 -0.333333 -0.166667 -0.333333    0.00173611  14 t-inv T
 -0.166667  0.333333  0.166667    0.00173611  14 t-inv T
  0.333333  0.166667  0.166667    0.00173611  14 t-inv T
 -0.166667 -0.500000  0.000000    0.00347222  15 t-inv T
 -0.500000  0.166667 -0.500000    0.00347222  15 t-inv T
  0.166667  0.500000  0.666667    0.00347222  15 t-inv T
  0.500000 -0.166667 -0.166667    0.00347222  15 t-inv T
 -0.333333 -0.500000  0.000000    0.00347222  16 t-inv T
 -0.500000  0.333333 -0.500000    0.00347222  16 t-inv T
  0.333333  0.500000  0.833333    0.00347222  16 t-inv T
  0.500000 -0.333333 -0.333333    0.00347222  16 t-inv T
 -0.166667  0.000000 -0.250000    0.00347222  19 t-inv T
  0.000000  0.166667  0.250000    0.00347222  19 t-inv T
  0.166667  0.000000 -0.083333    0.00347222  19 t-inv T
  0.000000 -0.166667  0.083333    0.00347222  19 t-inv T
 -0.333333  0.000000 -0.250000    0.00347222  20 t-inv T
  0.000000  0.333333  0.250000    0.00347222  20 t-inv T
  0.333333  0.000000  0.083333    0.00347222  20 t-inv T
  0.000000 -0.333333 -0.083333    0.00347222  20 t-inv T
  0.333333  0.000000 -0.250000    0.00347222  22 t-inv T
  0.000000 -0.333333  0.250000    0.00347222  22 t-inv T
 -0.333333  0.000000 -0.583333    0.00347222  22 t-inv T
  0.000000  0.333333  0.583333    0.00347222  22 t-inv T
  0.166667  0.000000 -0.250000    0.00347222  23 t-inv T
  0.000000 -0.166667  0.250000    0.00347222  23 t-inv T
 -0.166667  0.000000 -0.416667    0.00347222  23 t-inv T
  0.000000  0.166667  0.416667    0.00347222  23 t-inv T
 -0.166667 -0.166667 -0.250000    0.00173611  24 t-inv T
 -0.166667  0.166667  0.083333    0.00173611  24 t-inv T
  0.166667  0.166667  0.083333    0.00173611  24 t-inv T
  0.166667 -0.166667  0.083333    0.00173611  24 t-inv T
 -0.500000 -0.166667 -0.250000    0.00347222  26 t-inv T
 -0.166667  0.500000  0.083333    0.00347222  26 t-inv T
  0.500000  0.166667  0.416667    0.00347222  26 t-inv T
  0.166667 -0.500000 -0.250000    0.00347222  26 t-inv T
  0.333333 -0.166667 -0.250000    0.00173611  27 t-inv T
 -0.166667 -0.333333  0.083333    0.00173611  27 t-inv T
 -0.333333  0.166667 -0.416667    0.00173611  27 t-inv T
  0.166667  0.333333  0.583333    0.00173611  27 t-inv T
  0.166667 -0.166667 -0.250000    0.00347222  28 t-inv T
 -0.166667 -0.166667  0.083333    0.00347222  28 t-inv T
 -0.166667  0.166667 -0.250000    0.00347222  28 t-inv T
  0.166667  0.166667  0.416667    0.00347222  28 t-inv T
 -0.333333 -0.333333 -0.250000    0.00173611  30 t-inv T
 -0.333333  0.333333 -0.083333    0.00173611  30 t-inv T
  0.333333  0.333333  0.416667    0.00173611  30 t-inv T
  0.333333 -0.333333 -0.083333    0.00173611  30 t-inv T
 -0.500000 -0.333333 -0.250000    0.00347222  31 t-inv T
 -0.333333  0.500000 -0.083333    0.00347222  31 t-inv T
  0.500000  0.333333  0.583333    0.00347222  31 t-inv T
  0.333333 -0.500000 -0.250000    0.00347222  31 t-inv T
  0.333333 -0.333333 -0.250000    0.00347222  32 t-inv T
 -0.333333 -0.333333 -0.083333    0.00347222  32 t-inv T
 -0.333333  0.333333 -0.250000    0.00347222  32 t-inv T
  0.333333  0.333333  0.583333    0.00347222  32 t-inv T
  0.166667 -0.333333 -0.250000    0.00173611  33 t-inv T
 -0.333333 -0.166667 -0.083333    0.00173611  33 t-inv T
 -0.166667  0.333333 -0.083333    0.00173611  33 t-inv T
  0.333333  0.166667  0.416667    0.00173611  33 t-inv T
 -0.166667 -0.500000 -0.250000    0.00347222  34 t-inv T
 -0.500000  0.166667 -0.250000    0.00347222  34 t-inv T
  0.166667  0.500000  0.416667    0.00347222  34 t-inv T
  0.500000 -0.166667  0.083333    0.00347222  34 t-inv T
 -0.333333 -0.500000 -0.250000    0.00347222  35 t-inv T
 -0.500000  0.333333 -0.250000    0.00347222  35 t-inv T
  0.333333  0.500000  0.583333    0.00347222  35 t-inv T
  0.500000 -0.333333 -0.083333    0.00347222  35 t-inv T
 -0.500000 -0.500000 -0.250000    0.00694444  36 t-inv T
 -0.166667  0.333333 -0.250000    0.00173611  37 t-inv T
  0.333333  0.166667  0.583333    0.00173611  37 t-inv T
  0.166667 -0.333333 -0.416667    0.00173611  37 t-inv T
 -0.333333 -0.166667  0.083333    0.00173611  37 t-inv T
  0.333333  0.333333 -0.250000    0.00173611  38 t-inv T
  0.333333 -0.333333  0.583333    0.00173611  38 t-inv T
 -0.333333 -0.333333 -0.916667    0.00173611  38 t-inv T
 -0.333333  0.333333  0.583333    0.00173611  38 t-inv T
 -0.333333  0.166667 -0.250000    0.00173611  40 t-inv T
  0.166667  0.333333  0.416667    0.00173611  40 t-inv T
  0.333333 -0.166667 -0.083333    0.00173611  40 t-inv T
 -0.166667 -0.333333 -0.083333    0.00173611  40 t-inv T
  0.166667  0.166667 -0.250000    0.00173611  42 t-inv T
  0.166667 -0.166667  0.416667    0.00173611  42 t-inv T
 -0.166667 -0.166667 -0.583333    0.00173611  42 t-inv T
 -0.166667  0.166667  0.416667    0.00173611  42 t-inv T
 -0.166667  0.000000 -0.500000    0.00347222  44 t-inv T
  0.000000  0.166667  0.500000    0.00347222  44 t-inv T
  0.166667  0.000000 -0.333333    0.00347222  44 t-inv T
  0.000000 -0.166667  0.333333    0.00347222  44 t-inv T
 -0.333333  0.000000 -0.500000    0.00347222  45 t-inv T
  0.000000  0.333333  0.500000    0.00347222  45 t-inv T
  0.333333  0.000000 -0.166667    0.00347222  45 t-inv T
  0.000000 -0.333333  0.166667    0.00347222  45 t-inv T
 -0.166667 -0.166667 -0.500000    0.00173611  46 t-inv T
 -0.166667  0.166667  0.333333    0.00173611  46 t-inv T
  0.166667  0.166667 -0.166667    0.00173611  46 t-inv T
  0.166667 -0.166667  0.333333    0.00173611  46 t-inv T
  0.333333 -0.166667 -0.500000    0.00173611  47 t-inv T
 -0.166667 -0.333333  0.333333    0.00173611  47 t-inv T
 -0.333333  0.166667 -0.666667    0.00173611  47 t-inv T
  0.166667  0.333333  0.833333    0.00173611  47 t-inv T
 -0.333333 -0.333333 -0.500000    0.00173611  49 t-inv T
 -0.333333  0.333333  0.166667    0.00173611  49 t-inv T
  0.333333  0.333333  0.166667    0.00173611  49 t-inv T
  0.333333 -0.333333  0.166667    0.00173611  49 t-inv T
  0.166667 -0.333333 -0.500000    0.00173611  51 t-inv T
 -0.333333 -0.166667  0.166667    0.00173611  51 t-inv T
 -0.166667  0.333333 -0.333333    0.00173611  51 t-inv T
  0.333333  0.166667  0.666667    0.00173611  51 t-inv T


--------------------------------------------------------------------------------------------------------




 Dimension of arrays:
   k-points           NKPTS =    601   k-points in BZ     NKDIM =    886   number of bands    NBANDS=     50
   number of dos      NEDOS =    301   number of ions     NIONS =      8
   non local maximal  LDIM  =      6   non local SUM 2l+1 LMDIM =     18
   total plane-waves  NPLWV =  76800
   max r-space proj   IRMAX =      1   max aug-charges    IRDMAX=  21604
   dimension x,y,z NGX =    40 NGY =   40 NGZ =   48
   dimension x,y,z NGXF=    80 NGYF=   80 NGZF=   96
   support grid    NGXF=    80 NGYF=   80 NGZF=   96
   ions per type =               2   1   1   4
 NGX,Y,Z   is equivalent  to a cutoff of  12.23, 12.23, 12.01 a.u.
 NGXF,Y,Z  is equivalent  to a cutoff of  24.47, 24.47, 24.01 a.u.


 I would recommend the setting:
   dimension x,y,z NGX =    40 NGY =   40 NGZ =   48
 SYSTEM =  Name                                    
 POSCAR =  Cu2ZnSnS4 (LaFond 2014, 293 K)          

 Startparameter for this run:
   NWRITE =      2    write-flag & timer
   PREC   = accura    normal or accurate (medium, high low for compatibility)
   ISTART =      0    job   : 0-new  1-cont  2-samecut
   ICHARG =      2    charge: 1-file 2-atom 10-const
   ISPIN  =      1    spin polarized calculation?
   LNONCOLLINEAR =      F non collinear calculations
   LSORBIT =      F    spin-orbit coupling
   INIWAV =      1    electr: 0-lowe 1-rand  2-diag
   LASPH  =      F    aspherical Exc in radial PAW
   METAGGA=      F    non-selfconsistent MetaGGA calc.

 Electronic Relaxation 1
   ENCUT  =  500.0 eV  36.75 Ry    6.06 a.u.   9.91  9.91 12.12*2*pi/ulx,y,z
   ENINI  =  500.0     initial cutoff
   ENAUG  =  758.2 eV  augmentation charge cutoff
   NELM   =     60;   NELMIN=  5; NELMDL=  0     # of ELM steps 
   EDIFF  = 0.1E-05   stopping-criterion for ELM
   LREAL  =      F    real-space projection
[...]
      5     -68.4579      2.00000
      6     -68.4579      2.00000
      7     -20.1606      2.00000
      8     -20.1562      2.00000
      9     -20.1562      2.00000
     10     -20.0629      2.00000
     11     -20.0574      2.00000
     12     -11.2123      2.00000
     13     -10.7819      2.00000
     14     -10.0813      2.00000
     15     -10.0813      2.00000
     16      -5.0506      2.00000
     17      -4.6336      2.00000
     18      -4.6289      2.00000
     19      -4.6289      2.00000
     20      -4.5551      2.00000
     21      -3.7660      2.00000
     22      -2.2298      2.00000
     23      -0.8629      2.00000
     24      -0.7749      2.00000
     25      -0.3928      2.00000
     26      -0.3710      2.00000
     27      -0.3710      2.00000
     28      -0.0158      2.00000
     29      -0.0158      2.00000
     30       0.4679      2.00000
     31       0.5125      2.00000
     32       0.5125      2.00000
     33       1.3602      2.00000
     34       1.5514      2.00000
     35       1.6356      2.00000
     36       1.6784      2.00000
     37       2.4917      2.00000
     38       2.6433      2.00000
     39       2.6740      2.00000
     40       2.6740      2.00000
     41       2.9636      2.00000
     42       2.9636      2.00000
     43       6.4690      0.00000
     44       7.0460      0.00000
     45       7.0460      0.00000
     46       7.4990      0.00000
     47       8.4600      0.00000
     48       8.6344      0.00000
     49       9.5418      0.00000
     50       9.6165      0.00000

 k-point   598 :       0.0000    0.0000    0.4858
  band No.  band energies     occupation 
      1     -68.5136      2.00000
      2     -68.4803      2.00000
      3     -68.4803      2.00000
      4     -68.4611      2.00000
      5     -68.4579      2.00000
      6     -68.4579      2.00000
      7     -20.1606      2.00000
      8     -20.1562      2.00000
      9     -20.1562      2.00000
     10     -20.0629      2.00000
     11     -20.0574      2.00000
     12     -11.2102      2.00000
     13     -10.7842      2.00000
     14     -10.0814      2.00000
     15     -10.0814      2.00000
     16      -5.0508      2.00000
     17      -4.6337      2.00000
     18      -4.6289      2.00000
     19      -4.6289      2.00000
     20      -4.5551      2.00000
     21      -3.7655      2.00000
     22      -2.2302      2.00000
     23      -0.8520      2.00000
     24      -0.7853      2.00000
     25      -0.3919      2.00000
     26      -0.3707      2.00000
     27      -0.3707      2.00000
     28      -0.0158      2.00000
     29      -0.0158      2.00000
     30       0.4685      2.00000
     31       0.5129      2.00000
     32       0.5129      2.00000
     33       1.3603      2.00000
     34       1.5513      2.00000
     35       1.6368      2.00000
     36       1.6764      2.00000
     37       2.4961      2.00000
     38       2.6385      2.00000
     39       2.6770      2.00000
     40       2.6770      2.00000
     41       2.9602      2.00000
     42       2.9602      2.00000
     43       6.4690      0.00000
     44       7.0437      0.00000
     45       7.0437      0.00000
     46       7.5000      0.00000
     47       8.4603      0.00000
     48       8.6333      0.00000
     49       9.5424      0.00000
     50       9.6154      0.00000

 k-point   599 :       0.0000    0.0000    0.4906
  band No.  band energies     occupation 
      1     -68.5136      2.00000
      2     -68.4803      2.00000
      3     -68.4803      2.00000
      4     -68.4611      2.00000
      5     -68.4579      2.00000
      6     -68.4579      2.00000
      7     -20.1606      2.00000
      8     -20.1562      2.00000
      9     -20.1562      2.00000
     10     -20.0629      2.00000
     11     -20.0574      2.00000
     12     -11.2088      2.00000
     13     -10.7858      2.00000
     14     -10.0814      2.00000
     15     -10.0814      2.00000
     16      -5.0510      2.00000
     17      -4.6337      2.00000
     18      -4.6290      2.00000
     19      -4.6290      2.00000
     20      -4.5551      2.00000
     21      -3.7651      2.00000
     22      -2.2305      2.00000
     23      -0.8413      2.00000
     24      -0.7956      2.00000
     25      -0.3913      2.00000
     26      -0.3705      2.00000
     27      -0.3705      2.00000
     28      -0.0158      2.00000
     29      -0.0158      2.00000
     30       0.4689      2.00000
     31       0.5132      2.00000
     32       0.5132      2.00000
     33       1.3603      2.00000
     34       1.5512      2.00000
     35       1.6378      2.00000
     36       1.6749      2.00000
     37       2.4994      2.00000
     38       2.6348      2.00000
     39       2.6792      2.00000
     40       2.6792      2.00000
     41       2.9577      2.00000
     42       2.9577      2.00000
     43       6.4690      0.00000
     44       7.0420      0.00000
     45       7.0420      0.00000
     46       7.5007      0.00000
     47       8.4606      0.00000
     48       8.6326      0.00000
     49       9.5428      0.00000
     50       9.6147      0.00000

 k-point   600 :       0.0000    0.0000    0.4953
  band No.  band energies     occupation 
      1     -68.5135      2.00000
      2     -68.4803      2.00000
      3     -68.4803      2.00000
      4     -68.4610      2.00000
      5     -68.4579      2.00000
      6     -68.4579      2.00000
      7     -20.1606      2.00000
      8     -20.1562      2.00000
      9     -20.1562      2.00000
     10     -20.0629      2.00000
     11     -20.0574      2.00000
     12     -11.2079      2.00000
     13     -10.7868      2.00000
     14     -10.0814      2.00000
     15     -10.0814      2.00000
     16      -5.0511      2.00000
     17      -4.6337      2.00000
     18      -4.6290      2.00000
     19      -4.6290      2.00000
     20      -4.5551      2.00000
     21      -3.7649      2.00000
     22      -2.2307      2.00000
     23      -0.8313      2.00000
     24      -0.8055      2.00000
     25      -0.3909      2.00000
     26      -0.3703      2.00000
     27      -0.3703      2.00000
     28      -0.0158      2.00000
     29      -0.0158      2.00000
     30       0.4691      2.00000
     31       0.5134      2.00000
     32       0.5134      2.00000
     33       1.3604      2.00000
     34       1.5512      2.00000
     35       1.6384      2.00000
     36       1.6739      2.00000
     37       2.5015      2.00000
     38       2.6326      2.00000
     39       2.6805      2.00000
     40       2.6805      2.00000
     41       2.9562      2.00000
     42       2.9562      2.00000
     43       6.4691      0.00000
     44       7.0410      0.00000
     45       7.0410      0.00000
     46       7.5011      0.00000
     47       8.4607      0.00000
     48       8.6321      0.00000
     49       9.5430      0.00000
     50       9.6142      0.00000

 k-point   601 :       0.0000    0.0000    0.5000
  band No.  band energies     occupation 
      1     -68.5135      2.00000
      2     -68.4803      2.00000
      3     -68.4803      2.00000
      4     -68.4610      2.00000
      5     -68.4579      2.00000
      6     -68.4579      2.00000
      7     -20.1606      2.00000
      8     -20.1562      2.00000
      9     -20.1562      2.00000
     10     -20.0629      2.00000
     11     -20.0574      2.00000
     12     -11.2076      2.00000
     13     -10.7871      2.00000
     14     -10.0814      2.00000
     15     -10.0814      2.00000
     16      -5.0511      2.00000
     17      -4.6338      2.00000
     18      -4.6290      2.00000
     19      -4.6290      2.00000
     20      -4.5551      2.00000
     21      -3.7648      2.00000
     22      -2.2307      2.00000
     23      -0.8253      2.00000
     24      -0.8114      2.00000
     25      -0.3908      2.00000
     26      -0.3703      2.00000
     27      -0.3703      2.00000
     28      -0.0158      2.00000
     29      -0.0158      2.00000
     30       0.4692      2.00000
     31       0.5134      2.00000
     32       0.5134      2.00000
     33       1.3604      2.00000
     34       1.5512      2.00000
     35       1.6386      2.00000
     36       1.6736      2.00000
     37       2.5022      2.00000
     38       2.6318      2.00000
     39       2.6810      2.00000
     40       2.6810      2.00000
     41       2.9557      2.00000
     42       2.9557      2.00000
     43       6.4691      0.00000
     44       7.0407      0.00000
     45       7.0407      0.00000
     46       7.5013      0.00000
     47       8.4608      0.00000
     48       8.6320      0.00000
     49       9.5431      0.00000
     50       9.6141      0.00000


--------------------------------------------------------------------------------------------------------


 soft charge-density along one line, spin component           1
         0         1         2         3         4         5         6         7         8         9
 total charge-density along one line
 
 pseudopotential strength for first ion, spin component:           1
-65.328  -0.000  -0.000   7.325   0.000   0.000   0.000  -0.002
 -0.000 -65.311  -0.000   0.000   7.319   0.000   0.023   0.000
 -0.000  -0.000 -65.328   0.000   0.000   7.325   0.000   0.023
  7.325   0.000   0.000   6.118   0.000   0.000  -0.000   0.000
  0.000   7.319   0.000   0.000   6.119   0.000  -0.003  -0.000
  0.000   0.000   7.325   0.000   0.000   6.118  -0.000  -0.003
  0.000   0.023   0.000  -0.000  -0.003  -0.000  -2.906  -0.000
 -0.002   0.000   0.023   0.000  -0.000  -0.003  -0.000  -2.895
  0.000   0.000   0.000   0.000  -0.000   0.000  -0.000  -0.000
  0.023   0.000   0.002  -0.003  -0.000  -0.000  -0.000  -0.000
 -0.000   0.002   0.000   0.000  -0.000  -0.000   0.008   0.000
  0.000   0.022   0.000  -0.000  -0.003  -0.000  -3.553  -0.000
 -0.002   0.000   0.022   0.000  -0.000  -0.003  -0.000  -3.543
  0.000   0.000   0.000   0.000  -0.000   0.000  -0.000  -0.000
  0.022   0.000   0.002  -0.003  -0.000  -0.000  -0.000  -0.000
 -0.000   0.002   0.000   0.000  -0.000  -0.000   0.008   0.000
 -0.000  -0.000  -0.000  -0.000  -0.000  -0.000   0.000   0.000
 -0.000  -0.000  -0.000  -0.000  -0.000  -0.000   0.000   0.000
 total augmentation occupancy for first ion, spin component:           1
  2.000   0.000  -0.000  -0.002   0.000   0.000   0.000  -0.001   0.000   0.008   0.000   0.000   0.001   0.000  -0.008  -0.000
  0.000   2.000   0.000   0.000  -0.002  -0.000   0.008   0.000   0.000   0.000   0.001  -0.008   0.000   0.000   0.000  -0.001
  0.000   0.000   2.000  -0.000   0.000  -0.002  -0.000   0.008   0.000   0.001   0.000  -0.000  -0.008   0.000  -0.001   0.000
 -0.002   0.000  -0.000   0.097   0.000   0.000   0.000   0.009   0.000  -0.426   0.000   0.000  -0.003   0.000   0.357  -0.000
  0.000  -0.002  -0.000   0.000   0.095  -0.000  -0.424   0.000   0.000   0.000   0.003   0.356   0.000   0.000   0.000  -0.004
  0.000   0.000  -0.002  -0.000   0.000   0.097   0.000  -0.426   0.000  -0.009   0.000   0.000   0.357  -0.000   0.003   0.000
  0.000   0.008   0.000   0.000  -0.424   0.000   4.552   0.000   0.000   0.000   0.192  -2.290   0.000   0.000   0.000  -0.110
 -0.001   0.000   0.008   0.009   0.000  -0.426  -0.000   4.503   0.000   0.000   0.000   0.000  -2.238   0.000  -0.000  -0.000
  0.000   0.000   0.000   0.000   0.000   0.000   0.000   0.000   2.861   0.000   0.000   0.000   0.000  -0.676   0.000   0.000
  0.008  -0.000   0.001  -0.426   0.000  -0.009   0.000  -0.000   0.000   4.503   0.000   0.000   0.000   0.000  -2.238   0.000
 -0.000   0.001   0.000   0.000   0.003   0.000   0.192   0.000   0.000   0.000   2.755  -0.110   0.000   0.000   0.000  -0.616
  0.000  -0.008   0.000  -0.000   0.356   0.000  -2.290  -0.000   0.000   0.000  -0.110   2.008   0.000   0.000  -0.000   0.046
  0.001   0.000  -0.008  -0.003   0.000   0.357   0.000  -2.238  -0.000   0.000  -0.000   0.000   1.955  -0.000  -0.000   0.000
  0.000   0.000   0.000   0.000   0.000   0.000   0.000   0.000  -0.676   0.000   0.000   0.000   0.000   0.475   0.000   0.000
 -0.008  -0.000  -0.001   0.357   0.000   0.003   0.000  -0.000   0.000  -2.238   0.000   0.000   0.000   0.000   1.955   0.000
 -0.000  -0.001   0.000   0.000  -0.004   0.000  -0.110   0.000   0.000   0.000  -0.616   0.046   0.000   0.000   0.000   0.450
  0.000   0.000   0.000   0.000   0.000   0.000   0.000   0.000   0.042  -0.000   0.000   0.000  -0.000  -0.025   0.000   0.000
  0.000   0.000  -0.000   0.000   0.000   0.000   0.000   0.000  -0.011   0.000   0.000   0.000   0.000   0.003  -0.000   0.000


------------------------ aborting loop because EDIFF is reached ----------------------------------------


 


 total charge     
 
# of ion     s       p       d       tot
----------------------------------------
  1        0.208   6.163   9.067  15.438
  2        0.206   6.161   9.068  15.435
  3        0.490   0.461   9.836  10.787
  4        1.084   1.141  10.121  12.346
  5        1.319   2.413   0.000   3.732
  6        1.319   2.413   0.000   3.732
  7        1.319   2.413   0.000   3.732
  8        1.318   2.412   0.000   3.731
------------------------------------------------
tot        7.263  23.577  38.091  68.931
 
    FORLOC:  cpu time    0.0000: real time    0.0023
    FORHF :  cpu time 1229.3288: real time 1230.0893
    FORNL :  cpu time    0.0520: real time    0.0517
    STRESS:  cpu time    1.0281: real time    1.0294
    FORCOR:  cpu time    0.0680: real time    0.0663
    OFIELD:  cpu time    0.0000: real time    0.0002

  FORCE on cell =-STRESS in cart. coord.  units (eV):
  Direction    XX          YY          ZZ          XY          YZ          ZX
  --------------------------------------------------------------------------------------
  Alpha Z   275.46753   275.46753   275.46753
  Ewald   -2394.86127 -2394.86127 -2366.21278     0.00000     0.00000     0.00000
  Hartree  1686.78889  1686.78889  1717.91277     0.00000     0.00017     0.00015
  E(xc)    -375.94654  -375.94654  -375.94852    -0.00004     0.00001     0.00001
  Local    -634.07962  -634.07962  -694.15648     0.00036     0.00053     0.00056
  n-local   660.59364   660.72343   660.91748     0.01759     0.00125     0.13643
  augment   455.52362   455.52360   455.12979    -0.00029    -0.00253    -0.00252
  Kinetic   910.00856   911.93885   911.14367    -0.04160    -0.15936    -0.31462
  Fock            NaN         NaN         NaN         NaN         NaN         NaN
  -------------------------------------------------------------------------------------
  Total           NaN         NaN         NaN         NaN         NaN         NaN
  in kB           NaN         NaN         NaN         NaN         NaN         NaN
  external pressure =         NaN kB  Pullay stress =        0.00 kB


 VOLUME and BASIS-vectors are now :
 -----------------------------------------------------------------------------
  energy-cutoff  :      500.00
  volume of cell :      160.21
      direct lattice vectors                 reciprocal lattice vectors
     5.435300000  0.000000000  0.000000000     0.183982485  0.000000000 -0.092196841
     0.000000000  5.435300000  0.000000000     0.000000000  0.183982485 -0.092196841
     2.717650000  2.717650000  5.423179281     0.000000000  0.000000000  0.184393683

  length of vectors
     5.435300000  5.435300000  6.646962958     0.205790700  0.205790700  0.184393683


 FORCES acting on ions:
    Electron-Ion                     Ewald-Force                    Non-Local-Force
 -----------------------------------------------------------------------------------------------
   -.404E-05 -.853E-06 -.480E-06   0.792E-11 -.246E-11 -.853E-11   0.651E-18 -.434E-18 0.000E+00
   -.635E-07 0.264E-05 0.502E-06   -.757E-11 -.244E-11 0.882E-11   0.217E-18 -.434E-18 0.000E+00
   0.290E-05 -.200E-05 0.521E-06   0.544E-11 -.267E-11 0.605E-11   0.000E+00 0.000E+00 0.000E+00
   0.249E-05 -.194E-05 -.437E-06   -.553E-11 -.253E-11 -.624E-11   -.412E-17 -.412E-17 0.000E+00
   -.636E+02 -.715E+01 0.576E+01   0.613E+02 0.840E+01 -.704E+01   0.220E+01 -.120E+01 0.122E+01
   0.636E+02 0.715E+01 0.576E+01   -.613E+02 -.840E+01 -.704E+01   -.220E+01 0.120E+01 0.122E+01
   0.715E+01 -.636E+02 -.576E+01   -.840E+01 0.613E+02 0.704E+01   0.120E+01 0.220E+01 -.122E+01
   -.715E+01 0.636E+02 -.576E+01   0.840E+01 -.613E+02 0.704E+01   -.120E+01 -.220E+01 -.122E+01
 -----------------------------------------------------------------------------------------------
   -.952E-05 -.493E-05 0.272E-04   -.178E-13 -.711E-14 -.888E-15   0.444E-15 0.000E+00 0.000E+00
 
 
 POSITION                                       TOTAL-FORCE (eV/Angst)
 -----------------------------------------------------------------------------------
      0.00000      0.00000      0.00000              NaN           NaN           NaN
      5.43530      2.71765      2.71159              NaN           NaN           NaN
      2.71765      2.71765      0.00000              NaN           NaN           NaN
      2.71765      5.43530      2.71159              NaN           NaN           NaN
      1.30213      1.38979      1.32105              NaN           NaN           NaN
      4.13317      4.04551      1.32105              NaN           NaN           NaN
      6.76316      4.01978      4.10213              NaN           NaN           NaN
      4.10744      6.85082      4.10213              NaN           NaN           NaN
 -----------------------------------------------------------------------------------
    total drift:                                     NaN           NaN           NaN


--------------------------------------------------------------------------------------------------------



  FREE ENERGIE OF THE ION-ELECTRON SYSTEM (eV)
  ---------------------------------------------------
  free  energy   TOTEN  =       -38.58645497 eV

  energy  without entropy=      -38.58645497  energy(sigma->0) =      -38.58645497
 


--------------------------------------------------------------------------------------------------------


    POTLOK:  cpu time    0.2240: real time    0.2265


--------------------------------------------------------------------------------------------------------


 writing wavefunctions
     LOOP+:  cpu time19635.3671: real time19705.2679
    4ORBIT:  cpu time    0.0000: real time    0.0000
 


 total charge     
 
# of ion     s       p       d       tot
----------------------------------------
  1        0.208   6.163   9.067  15.438
  2        0.206   6.161   9.068  15.435
  3        0.490   0.461   9.836  10.787
  4        1.084   1.141  10.121  12.346
  5        1.319   2.413   0.000   3.732
  6        1.319   2.413   0.000   3.732
  7        1.319   2.413   0.000   3.732
  8        1.318   2.412   0.000   3.731
------------------------------------------------
tot        7.263  23.577  38.091  68.931
 

 total amount of memory used by VASP on root node   709054. kBytes
========================================================================

   base      :      30000. kBytes
   nonl-proj :     125362. kBytes
   fftplans  :       1165. kBytes
   grid      :       2402. kBytes
   one-center:         15. kBytes
   HF        :         64. kBytes
   nonlr-proj:       1934. kBytes
   wavefun   :     548112. kBytes
 
  
  
 General timing and accounting informations for this job:
 ========================================================
  
                  Total CPU time used (sec):    19734.350
                            User time (sec):    19692.279
                          System time (sec):       42.071
                         Elapsed time (sec):    19813.811
  
                   Maximum memory used (kb):     1030684.
                   Average memory used (kb):           0.
  
                          Minor page faults:      1110908
                          Major page faults:            0
                 Voluntary context switches:         1635
