 vasp.5.4.1 24Jun15 (build Nov 25 2015 16:39:35) complex                        
  
 executed on         CrayXC-Intel date 2016.10.11  15:49:11
 running on   24 total cores
 distrk:  each k-point on   24 cores,    1 groups
 distr:  one band on NCORES_PER_BAND=  24 cores,    1 groups


--------------------------------------------------------------------------------------------------------


 INCAR:
 POTCAR:    PAW_PBE Cu_pv 06Sep2000               
 POTCAR:    PAW_PBE Zn 06Sep2000                  
 POTCAR:    PAW_PBE Sn_d 06Sep2000                
 POTCAR:    PAW_PBE S 06Sep2000                   

 ----------------------------------------------------------------------------- 
|                                                                             |
|           W    W    AA    RRRRR   N    N  II  N    N   GGGG   !!!           |
|           W    W   A  A   R    R  NN   N  II  NN   N  G    G  !!!           |
|           W    W  A    A  R    R  N N  N  II  N N  N  G       !!!           |
|           W WW W  AAAAAA  RRRRR   N  N N  II  N  N N  G  GGG   !            |
|           WW  WW  A    A  R   R   N   NN  II  N   NN  G    G                |
|           W    W  A    A  R    R  N    N  II  N    N   GGGG   !!!           |
|                                                                             |
|      For optimal performance we recommend to set                            |
|        NCORE= 4 - approx SQRT( number of cores)                             |
|      NCORE specifies how many cores store one orbital (NPAR=cpu/NCORE).     |
|      This setting can  greatly improve the performance of VASP for DFT.     |
|      The default, NPAR=number of cores might be grossly inefficient         |
|      on modern multi-core architectures or massively parallel machines.     |
|      Do your own testing !!!!                                               |
|      Unfortunately you need to use the default for GW and RPA calculations. |
|      (for HF NCORE is supported but not extensively tested yet)             |
|                                                                             |
 ----------------------------------------------------------------------------- 

 POTCAR:    PAW_PBE Cu_pv 06Sep2000               
   VRHFIN =Cu: d10 p1                                                           
   LEXCH  = PE                                                                  
   EATOM  =  4120.1201 eV,  302.8203 Ry                                         
                                                                                
   TITEL  = PAW_PBE Cu_pv 06Sep2000                                             
   LULTRA =        F    use ultrasoft PP ?                                      
   IUNSCR =        1    unscreen: 0-lin 1-nonlin 2-no                           
   RPACOR =    1.500    partial core radius                                     
   POMASS =   63.546; ZVAL   =   17.000    mass and valenz                      
   RCORE  =    2.000    outmost cutoff radius                                   
   RWIGS  =    2.000; RWIGS  =    1.058    wigner-seitz radius (au A)           
   ENMAX  =  368.648; ENMIN  =  276.486 eV                                      
   RCLOC  =    1.304    cutoff for local pot                                    
   LCOR   =        T    correct aug charges                                     
   LPAW   =        T    paw PP                                                  
   EAUG   =  758.233                                                            
   DEXC   =    0.000                                                            
   RMAX   =    2.046    core radius for proj-oper                               
   RAUG   =    1.300    factor for augmentation sphere                          
   RDEP   =    2.025    radius for radial grids                                 
   RDEPT  =    1.558    core radius for aug-charge                              
                                                                                
   Atomic configuration                                                         
    8 entries                                                                   
     n  l   j            E        occ.                                          
     1  0  0.50     -8850.2467   2.0000                                         
     2  0  0.50     -1062.3498   2.0000                                         
     2  1  1.50      -916.8226   6.0000                                         
     3  0  0.50      -114.6929   2.0000                                         
     3  1  1.50       -72.1325   6.0000                                         
     3  2  2.50        -5.0394  10.0000                                         
     4  0  0.50        -4.6097   1.0000                                         
     4  3  2.50        -1.3606   0.0000                                         
   Description                                                                  
     l       E           TYP  RCUT    TYP  RCUT                                 
     1    -72.1324777     23  1.700                                             
     1     -1.3605826     23  1.700                                             
     2     -5.0393776     23  2.000                                             
     2     -6.3999602     23  2.000                                             
     0     -4.6097062     23  1.800                                             
     0     14.1620818     23  1.800                                             
  local pseudopotential read in
  partial core-charges read in
  partial kinetic energy density read in
  atomic valenz-charges read in
  non local Contribution for L=           1  read in
    real space projection operators read in
  non local Contribution for L=           1  read in
    real space projection operators read in
  non local Contribution for L=           2  read in
    real space projection operators read in
  non local Contribution for L=           2  read in
    real space projection operators read in
  non local Contribution for L=           0  read in
    real space projection operators read in
  non local Contribution for L=           0  read in
    real space projection operators read in
    PAW grid and wavefunctions read in
 
   number of l-projection  operators is LMAX  =           6
   number of lm-projection operators is LMMAX =          18
 
 POTCAR:    PAW_PBE Zn 06Sep2000                  
   VRHFIN =Zn: d10 p2                                                           
   LEXCH  = PE                                                                  
   EATOM  =  1748.8345 eV,  128.5357 Ry                                         
                                                                                
   TITEL  = PAW_PBE Zn 06Sep2000                                                
   LULTRA =        F    use ultrasoft PP ?                                      
   IUNSCR =        1    unscreen: 0-lin 1-nonlin 2-no                           
   RPACOR =    2.000    partial core radius                                     
   POMASS =   65.390; ZVAL   =   12.000    mass and valenz                      
   RCORE  =    2.300    outmost cutoff radius                                   
   RWIGS  =    2.400; RWIGS  =    1.270    wigner-seitz radius (au A)           
   ENMAX  =  276.723; ENMIN  =  207.542 eV                                      
   RCLOC  =    1.828    cutoff for local pot                                    
   LCOR   =        T    correct aug charges                                     
   LPAW   =        T    paw PP                                                  
   EAUG   =  575.892                                                            
   DEXC   =    0.000                                                            
   RMAX   =    2.347    core radius for proj-oper                               
   RAUG   =    1.300    factor for augmentation sphere                          
   RDEP   =    2.324    radius for radial grids                                 
   RDEPT  =    1.788    core radius for aug-charge                              
                                                                                
   Atomic configuration                                                         
    9 entries                                                                   
     n  l   j            E        occ.                                          
     1  0  0.50     -9524.6913   2.0000                                         
     2  0  0.50     -1158.1882   2.0000                                         
     2  1  1.50     -1003.8506   6.0000                                         
     3  0  0.50      -129.2194   2.0000                                         
     3  1  1.50       -83.3890   6.0000                                         
     3  2  2.50       -10.1410  10.0000                                         
     4  0  0.50        -5.9785   2.0000                                         
     4  1  0.50        -4.0817   0.0000                                         
     4  3  2.50        -1.3606   0.0000                                         
   Description                                                                  
     l       E           TYP  RCUT    TYP  RCUT                                 
     2    -10.1410010     23  2.300                                             
     2    -11.5015836     23  2.300                                             
     0     -5.9785163     23  2.300                                             
     0      1.1858015     23  2.300                                             
     1     -2.7211652     23  2.300                                             
     1     13.2444212     23  2.300                                             
  local pseudopotential read in
  partial core-charges read in
  partial kinetic energy density read in
  atomic valenz-charges read in
  non local Contribution for L=           2  read in
    real space projection operators read in
  non local Contribution for L=           2  read in
    real space projection operators read in
  non local Contribution for L=           0  read in
    real space projection operators read in
  non local Contribution for L=           0  read in
    real space projection operators read in
  non local Contribution for L=           1  read in
    real space projection operators read in
  non local Contribution for L=           1  read in
    real space projection operators read in
    PAW grid and wavefunctions read in
 
   number of l-projection  operators is LMAX  =           6
   number of lm-projection operators is LMMAX =          18
 
 POTCAR:    PAW_PBE Sn_d 06Sep2000                
   VRHFIN =Sn: s2p2                                                             
   LEXCH  = PE                                                                  
   EATOM  =  1893.1092 eV,  139.1396 Ry                                         
                                                                                
   TITEL  = PAW_PBE Sn_d 06Sep2000                                              
   LULTRA =        F    use ultrasoft PP ?                                      
   IUNSCR =        1    unscreen: 0-lin 1-nonlin 2-no                           
   RPACOR =    2.300    partial core radius                                     
   POMASS =  118.710; ZVAL   =   14.000    mass and valenz                      
   RCORE  =    2.500    outmost cutoff radius                                   
   RWIGS  =    2.960; RWIGS  =    1.566    wigner-seitz radius (au A)           
   ENMAX  =  241.083; ENMIN  =  180.812 eV                                      
   ICORE  =        3    local potential                                         
   LCOR   =        T    correct aug charges                                     
   LPAW   =        T    paw PP                                                  
   EAUG   =  439.825                                                            
   DEXC   =    0.000                                                            
   RMAX   =    2.560    core radius for proj-oper                               
   RAUG   =    1.300    factor for augmentation sphere                          
   RDEP   =    2.659    radius for radial grids                                 
   RDEPT  =    2.046    core radius for aug-charge                              
                                                                                
   Atomic configuration                                                         
   12 entries                                                                   
     n  l   j            E        occ.                                          
     1  0  0.50    -29007.2859   2.0000                                         
     2  0  0.50     -4378.8056   2.0000                                         
     2  1  1.50     -3930.4293   6.0000                                         
     3  0  0.50      -845.0264   2.0000                                         
     3  1  1.50      -698.5725   6.0000                                         
     3  2  2.50      -473.2839  10.0000                                         
     4  0  0.50      -133.9036   2.0000                                         
     4  1  1.50       -89.6752   6.0000                                         
     4  2  2.50       -25.8375  10.0000                                         
     5  0  0.50       -10.5484   2.0000                                         
     5  1  0.50        -3.6940   2.0000                                         
     4  3  2.50        -2.7416   0.0000                                         
   Description                                                                  
     l       E           TYP  RCUT    TYP  RCUT                                 
     2    -25.8374624     23  2.500                                             
     2     -5.4423304     23  2.500                                             
     0    -10.5483727     23  2.500                                             
     0     13.6058260     23  2.500                                             
     1     -3.6939829     23  2.500                                             
     1      1.9821976     23  2.500                                             
     3     -1.3605826      7  2.500                                             
  local pseudopotential read in
  partial core-charges read in
  partial kinetic energy density read in
  atomic valenz-charges read in
  non local Contribution for L=           2  read in
    real space projection operators read in
  non local Contribution for L=           2  read in
    real space projection operators read in
  non local Contribution for L=           0  read in
    real space projection operators read in
  non local Contribution for L=           0  read in
    real space projection operators read in
  non local Contribution for L=           1  read in
    real space projection operators read in
  non local Contribution for L=           1  read in
    real space projection operators read in
    PAW grid and wavefunctions read in
 
   number of l-projection  operators is LMAX  =           6
   number of lm-projection operators is LMMAX =          18
 
 POTCAR:    PAW_PBE S 06Sep2000                   
   VRHFIN =S : s2p4                                                             
   LEXCH  = PE                                                                  
   EATOM  =   276.8230 eV,   20.3459 Ry                                         
                                                                                
   TITEL  = PAW_PBE S 06Sep2000                                                 
   LULTRA =        F    use ultrasoft PP ?                                      
   IUNSCR =        1    unscreen: 0-lin 1-nonlin 2-no                           
   RPACOR =    1.500    partial core radius                                     
   POMASS =   32.066; ZVAL   =    6.000    mass and valenz                      
   RCORE  =    1.900    outmost cutoff radius                                   
   RWIGS  =    2.200; RWIGS  =    1.164    wigner-seitz radius (au A)           
   ENMAX  =  258.689; ENMIN  =  194.016 eV                                      
   ICORE  =        2    local potential                                         
   LCOR   =        T    correct aug charges                                     
   LPAW   =        T    paw PP                                                  
   EAUG   =  335.092                                                            
   DEXC   =    0.000                                                            
   RMAX   =    1.942    core radius for proj-oper                               
   RAUG   =    1.300    factor for augmentation sphere                          
   RDEP   =    1.954    radius for radial grids                                 
   RDEPT  =    1.744    core radius for aug-charge                              
                                                                                
   Atomic configuration                                                         
    6 entries                                                                   
     n  l   j            E        occ.                                          
     1  0  0.50     -2405.8406   2.0000                                         
     2  0  0.50      -211.7007   2.0000                                         
     2  1  1.50      -156.4958   6.0000                                         
     3  0  0.50       -17.2562   2.0000                                         
     3  1  0.50        -7.0085   4.0000                                         
     3  2  1.50        -6.8029   0.0000                                         
   Description                                                                  
     l       E           TYP  RCUT    TYP  RCUT                                 
     0    -17.2561641     23  1.900                                             
     0    -15.8743224     23  1.900                                             
     1     -7.0085400     23  1.900                                             
     1     -2.7779785     23  1.900                                             
     2     -6.8029130     23  1.900                                             
  local pseudopotential read in
  partial core-charges read in
  partial kinetic energy density read in
  atomic valenz-charges read in
  non local Contribution for L=           0  read in
    real space projection operators read in
  non local Contribution for L=           0  read in
    real space projection operators read in
  non local Contribution for L=           1  read in
    real space projection operators read in
  non local Contribution for L=           1  read in
    real space projection operators read in
    PAW grid and wavefunctions read in
 
   number of l-projection  operators is LMAX  =           4
   number of lm-projection operators is LMMAX =           8
 

 ----------------------------------------------------------------------------- 
|                                                                             |
|  ADVICE TO THIS USER RUNNING 'VASP/VAMP'   (HEAR YOUR MASTER'S VOICE ...):  |
|                                                                             |
|      You enforced a specific xc-type in the INCAR file,                     |
|      a different type was found on the POTCAR file                          |
|          I HOPE YOU KNOW, WHAT YOU ARE  DOING                               |
|                                                                             |
 ----------------------------------------------------------------------------- 

  PAW_PBE Cu_pv 06Sep2000               :
 energy of atom  1       EATOM=-4120.1201
 kinetic energy error for atom=    0.0655 (will be added to EATOM!!)
  PAW_PBE Zn 06Sep2000                  :
 energy of atom  2       EATOM=-1748.8345
 kinetic energy error for atom=    0.0029 (will be added to EATOM!!)
  PAW_PBE Sn_d 06Sep2000                :
 energy of atom  3       EATOM=-1893.1092
 kinetic energy error for atom=    0.0032 (will be added to EATOM!!)
  PAW_PBE S 06Sep2000                   :
 energy of atom  4       EATOM= -276.8230
 kinetic energy error for atom=    0.0020 (will be added to EATOM!!)
 
 
 POSCAR: Cu2ZnSnS4 (LaFond 2014, 293 K)          
  positions in direct lattice
  No initial velocities read in
 exchange correlation table for  LEXCH =       14
   RHO(1)=    0.500       N(1)  =     2000
   RHO(2)=  100.500       N(2)  =     4000
 


--------------------------------------------------------------------------------------------------------


 ion  position               nearest neighbor table
   1  0.000  0.000  0.000-   5 2.32   6 2.32   7 2.32   8 2.32
   2  0.750  0.250  0.500-   8 2.32   6 2.32   7 2.32   5 2.32
   3  0.500  0.500  0.000-   8 2.35   6 2.35   7 2.35   5 2.35
   4  0.250  0.750  0.500-   8 2.42   6 2.42   7 2.42   5 2.42
   5  0.118  0.134  0.244-   1 2.32   2 2.32   3 2.35   4 2.42
   6  0.639  0.623  0.244-   1 2.32   2 2.32   3 2.35   4 2.42
   7  0.866  0.361  0.756-   1 2.32   2 2.32   3 2.35   4 2.42
   8  0.377  0.882  0.756-   1 2.32   2 2.32   3 2.35   4 2.42
 
  LATTYP: Found a body centered tetragonal cell.
 ALAT       =     5.4353000000
 C/A-ratio  =     1.9955400000
  
  Lattice vectors:
  
 A1 = (   2.7176500000,  -2.7176500000,   5.4231792810)
 A2 = (  -2.7176500000,   2.7176500000,   5.4231792810)
 A3 = (  -2.7176500000,  -2.7176500000,  -5.4231792810)


Analysis of symmetry for initial positions (statically):
=====================================================================
 Subroutine PRICEL returns:
 Original cell was already a primitive cell.
 

 Routine SETGRP: Setting up the symmetry group for a 
 body centered tetragonal supercell.


 Subroutine GETGRP returns: Found  4 space group operations
 (whereof  4 operations were pure point group operations)
 out of a pool of 16 trial point group operations.


The static configuration has the point symmetry S_4 .


Analysis of symmetry for dynamics (positions and initial velocities):
=====================================================================
 Subroutine PRICEL returns:
 Original cell was already a primitive cell.
 

 Routine SETGRP: Setting up the symmetry group for a 
 body centered tetragonal supercell.


 Subroutine GETGRP returns: Found  4 space group operations
 (whereof  4 operations were pure point group operations)
 out of a pool of 16 trial point group operations.


The dynamic configuration has the point symmetry S_4 .


Analysis of structural, dynamic, and magnetic symmetry:
=====================================================================
 Subroutine PRICEL returns:
 Original cell was already a primitive cell.
 

 Routine SETGRP: Setting up the symmetry group for a 
 body centered tetragonal supercell.


 Subroutine GETGRP returns: Found  1 space group operations
 (whereof  1 operations were pure point group operations)
 out of a pool of 16 trial point group operations.


The (compounded) configuration has the point symmetry C_1 .


 Subroutine INISYM returns: Found  1 space group operations
 (whereof  1 operations are pure point group operations),
 and found     1 'primitive' translations

 
 
 KPOINTS: Automatically generated mesh            
  k-points in reciprocal lattice
Space group operators:
 irot       det(A)        alpha          n_x          n_y          n_z        tau_x        tau_y        tau_z
    1     1.000000     0.000000     1.000000     0.000000     0.000000     0.000000     0.000000     0.000000


--------------------------------------------------------------------------------------------------------




 Dimension of arrays:
   k-points           NKPTS =    694   k-points in BZ     NKDIM =    694   number of bands    NBANDS=    108
   number of dos      NEDOS =    301   number of ions     NIONS =      8
   non local maximal  LDIM  =      6   non local SUM 2l+1 LMDIM =     18
   total plane-waves  NPLWV =  76800
   max r-space proj   IRMAX =      1   max aug-charges    IRDMAX=  21604
   dimension x,y,z NGX =    40 NGY =   40 NGZ =   48
   dimension x,y,z NGXF=    80 NGYF=   80 NGZF=   96
   support grid    NGXF=    80 NGYF=   80 NGZF=   96
   ions per type =               2   1   1   4
 NGX,Y,Z   is equivalent  to a cutoff of  12.23, 12.23, 12.01 a.u.
 NGXF,Y,Z  is equivalent  to a cutoff of  24.47, 24.47, 24.01 a.u.


 I would recommend the setting:
   dimension x,y,z NGX =    40 NGY =   40 NGZ =   48
 SYSTEM =  Name                                    
 POSCAR =  Cu2ZnSnS4 (LaFond 2014, 293 K)          

 Startparameter for this run:
   NWRITE =      2    write-flag & timer
   PREC   = accura    normal or accurate (medium, high low for compatibility)
   ISTART =      0    job   : 0-new  1-cont  2-samecut
   ICHARG =     11    charge: 1-file 2-atom 10-const
   ISPIN  =      1    spin polarized calculation?
   LNONCOLLINEAR =      T non collinear calculations
   LSORBIT =      T    spin-orbit coupling
   INIWAV =      1    electr: 0-lowe 1-rand  2-diag
   LASPH  =      F    aspherical Exc in radial PAW
   METAGGA=      F    non-selfconsistent MetaGGA calc.

 Electronic Relaxation 1
   ENCUT  =  500.0 eV  36.75 Ry    6.06 a.u.   9.91  9.91 12.12*2*pi/ulx,y,z
   ENINI  =  500.0     initial cutoff
   ENAUG  =  758.2 eV  augmentation charge cutoff
   NELM   =     60;   NELMIN=  5; NELMDL=  0     # of ELM steps 
   EDIFF  = 0.1E-05   stopping-criterion for ELM
   LREAL  =      F    real-space projection
   NLSPLINE    = F    spline interpolate recip. space projectors
   LCOMPAT=      F    compatible to vasp.4.4
   GGA_COMPAT  = T    GGA compatible to vasp.4.4-vasp.4.6
   LMAXPAW     = -100 max onsite density
   LMAXMIX     =    2 max onsite mixed and CHGCAR
   VOSKOWN=      0    Vosko Wilk Nusair interpolation
   ROPT   =    0.00000   0.00000   0.00000   0.00000
 Ionic relaxation
   EDIFFG = -.5E-02   stopping-criterion for IOM
   NSW    =      0    number of steps for IOM
   NBLOCK =      1;   KBLOCK =      1    inner block; outer block 
   IBRION =     -1    ionic relax: 0-MD 1-quasi-New 2-CG
   NFREE  =      1    steps in history (QN), initial steepest desc. (CG)
   ISIF   =      3    stress and relaxation
   IWAVPR =     10    prediction:  0-non 1-charg 2-wave 3-comb
   ISYM   =      2    0-nonsym 1-usesym 2-fastsym
   LCORR  =      T    Harris-Foulkes like correction to forces

   POTIM  = 0.5000    time-step for ionic-motion
   TEIN   =    0.0    initial temperature
   TEBEG  =    0.0;   TEEND  =   0.0 temperature during run
   SMASS  =  -3.00    Nose mass-parameter (am)
   estimated Nose-frequenzy (Omega)   =  0.10E-29 period in steps =****** mass=  -0.675E-27a.u.
   SCALEE = 1.0000    scale energy and forces
   NPACO  =    256;   APACO  = 16.0  distance and # of slots for P.C.
   PSTRESS=    0.0 pullay stress

  Mass of Ions in am
   POMASS =  63.55 65.39118.71 32.07
  Ionic Valenz
   ZVAL   =  17.00 12.00 14.00  6.00
  Atomic Wigner-Seitz radii
   RWIGS  =  -1.00 -1.00 -1.00 -1.00
  virtual crystal weights 
   VCA    =   1.00  1.00  1.00  1.00
   NELECT =      84.0000    total number of electrons
   NUPDOWN=      -1.0000    fix difference up-down

 DOS related values:
   EMIN   =  10.00;   EMAX   =-10.00  energy-range for DOS
   EFERMI =   0.00
   ISMEAR =     0;   SIGMA  =   0.01  broadening in eV -4-tet -1-fermi 0-gaus

 Electronic relaxation 2 (details)
   IALGO  =     38    algorithm
   LDIAG  =      T    sub-space diagonalisation (order eigenvalues)
   LSUBROT=      F    optimize rotation matrix (better conditioning)
   TURBO    =      0    0=normal 1=particle mesh
   IRESTART =      0    0=no restart 2=restart with 2 vectors
   NREBOOT  =      0    no. of reboots
   NMIN     =      0    reboot dimension
   EREF     =   0.00    reference energy to select bands
   IMIX   =      4    mixing-type and parameters
     AMIX     =   0.40;   BMIX     =  1.00
     AMIX_MAG =   1.60;   BMIX_MAG =  1.00
     AMIN     =   0.01
     WC   =   100.;   INIMIX=   1;  MIXPRE=   1;  MAXMIX= -45

 Intra band minimization:
   WEIMIN = 0.0000     energy-eigenvalue tresh-hold
   EBREAK =  0.23E-08  absolut break condition
   DEPER  =   0.30     relativ break condition  

   TIME   =   0.40     timestep for ELM

  volume/ion in A,a.u.               =      20.03       135.15
  Fermi-wavevector in a.u.,A,eV,Ry     =   1.320082  2.494593 23.709739  1.742617
  Thomas-Fermi vector in A             =   2.449934
 
 Write flags
   LWAVE  =      T    write WAVECAR
   LCHARG =      T    write CHGCAR
   LVTOT  =      F    write LOCPOT, total local potential
   LVHAR  =      F    write LOCPOT, Hartree potential only
   LELF   =      F    write electronic localiz. function (ELF)
   LORBIT =     10    0 simple, 1 ext, 2 COOP (PROOUT)


 Dipole corrections
   LMONO  =      F    monopole corrections only (constant potential shift)
   LDIPOL =      F    correct potential (dipole corrections)
   IDIPOL =      0    1-x, 2-y, 3-z, 4-all directions 
   EPSILON=  1.0000000 bulk dielectric constant

 Exchange correlation treatment:
   GGA     =    PS    GGA type
   LEXCH   =    14    internal setting for exchange type
   VOSKOWN=      0    Vosko Wilk Nusair interpolation
   LHFCALC =     F    Hartree Fock is set to
   LHFONE  =     F    Hartree Fock one center treatment
   AEXX    =    0.0000 exact exchange contribution

 Linear response parameters
   LEPSILON=     F    determine dielectric tensor
   LRPA    =     F    only Hartree local field effects (RPA)
   LNABLA  =     F    use nabla operator in PAW spheres
   LVEL    =     F    velocity operator in full k-point grid
   LINTERFAST=   F  fast interpolation
   KINTER  =     0    interpolate to denser k-point grid
   CSHIFT  =0.1000    complex shift for real part using Kramers Kronig
   OMEGAMAX=  -1.0    maximum frequency
   DEG_THRESHOLD= 0.2000000E-02 threshold for treating states as degnerate
   RTIME   =    0.100 relaxation time in fs

 Orbital magnetization related:
   ORBITALMAG=     F  switch on orbital magnetization
   LCHIMAG   =     F  perturbation theory with respect to B field
   DQ        =  0.001000  dq finite difference perturbation B field



--------------------------------------------------------------------------------------------------------


 Static calculation
 charge density and potential remain constant during run
 non collinear spin polarized calculation
 Variant of blocked Davidson
 Davidson routine will perform the subspace rotation
 perform sub-space diagonalisation
    after iterative eigenvector-optimisation
 no mixing
 using additional bands           66
 reciprocal scheme for non local part
 use partial core corrections
 calculate Harris-corrections to forces 
   (improved forces if not selfconsistent)
 use gradient corrections 
 WARNING: stress and forces are not correct
  (second derivative of E(xc) not defined)
 use of overlap-Matrix (Vanderbilt PP)
 Gauss-broadening in eV      SIGMA  =   0.01


--------------------------------------------------------------------------------------------------------


  energy-cutoff  :      500.00
  volume of cell :      160.21
      direct lattice vectors                 reciprocal lattice vectors
     5.435300000  0.000000000  0.000000000     0.183982485  0.000000000 -0.092196841
     0.000000000  5.435300000  0.000000000     0.000000000  0.183982485 -0.092196841
     2.717650000  2.717650000  5.423179281     0.000000000  0.000000000  0.184393683

  length of vectors
     5.435300000  5.435300000  6.646962958     0.205790700  0.205790700  0.184393683


 
 k-points in units of 2pi/SCALE and weight: Automatically generated mesh            
   0.00000000  0.00000000  0.00000000       0.007
   0.16666667  0.00000000 -0.08351958       0.007
   0.33333333  0.00000000 -0.16703916       0.007
   0.50000000  0.00000000 -0.25055875       0.007
  -0.33333333  0.00000000  0.16703916       0.007
  -0.16666667  0.00000000  0.08351958       0.007
   0.00000000  0.16666667 -0.08351958       0.007
   0.16666667  0.16666667 -0.16703916       0.007
   0.33333333  0.16666667 -0.25055875       0.007
   0.50000000  0.16666667 -0.33407833       0.007
  -0.33333333  0.16666667  0.08351958       0.007
  -0.16666667  0.16666667  0.00000000       0.007
   0.00000000  0.33333333 -0.16703916       0.007
   0.16666667  0.33333333 -0.25055875       0.007
   0.33333333  0.33333333 -0.33407833       0.007
   0.50000000  0.33333333 -0.41759791       0.007
  -0.33333333  0.33333333  0.00000000       0.007
  -0.16666667  0.33333333 -0.08351958       0.007
   0.00000000  0.50000000 -0.25055875       0.007
   0.16666667  0.50000000 -0.33407833       0.007
   0.33333333  0.50000000 -0.41759791       0.007
   0.50000000  0.50000000 -0.50111749       0.007
  -0.33333333  0.50000000 -0.08351958       0.007
  -0.16666667  0.50000000 -0.16703916       0.007
   0.00000000 -0.33333333  0.16703916       0.007
   0.16666667 -0.33333333  0.08351958       0.007
   0.33333333 -0.33333333  0.00000000       0.007
   0.50000000 -0.33333333 -0.08351958       0.007
  -0.33333333 -0.33333333  0.33407833       0.007
  -0.16666667 -0.33333333  0.25055875       0.007
   0.00000000 -0.16666667  0.08351958       0.007
   0.16666667 -0.16666667  0.00000000       0.007
   0.33333333 -0.16666667 -0.08351958       0.007
   0.50000000 -0.16666667 -0.16703916       0.007
  -0.33333333 -0.16666667  0.25055875       0.007
  -0.16666667 -0.16666667  0.16703916       0.007
   0.00000000  0.00000000  0.25055875       0.007
   0.16666667  0.00000000  0.16703916       0.007
   0.33333333  0.00000000  0.08351958       0.007
   0.50000000  0.00000000  0.00000000       0.007
  -0.33333333  0.00000000  0.41759791       0.007
  -0.16666667  0.00000000  0.33407833       0.007
   0.00000000  0.16666667  0.16703916       0.007
   0.16666667  0.16666667  0.08351958       0.007
   0.33333333  0.16666667  0.00000000       0.007
   0.50000000  0.16666667 -0.08351958       0.007
  -0.33333333  0.16666667  0.33407833       0.007
  -0.16666667  0.16666667  0.25055875       0.007
   0.00000000  0.33333333  0.08351958       0.007
   0.16666667  0.33333333  0.00000000       0.007
   0.33333333  0.33333333 -0.08351958       0.007
   0.50000000  0.33333333 -0.16703916       0.007
  -0.33333333  0.33333333  0.25055875       0.007
  -0.16666667  0.33333333  0.16703916       0.007
   0.00000000  0.50000000  0.00000000       0.007
   0.16666667  0.50000000 -0.08351958       0.007
   0.33333333  0.50000000 -0.16703916       0.007
   0.50000000  0.50000000 -0.25055875       0.007
  -0.33333333  0.50000000  0.16703916       0.007
  -0.16666667  0.50000000  0.08351958       0.007
   0.00000000 -0.33333333  0.41759791       0.007
   0.16666667 -0.33333333  0.33407833       0.007
   0.33333333 -0.33333333  0.25055875       0.007
   0.50000000 -0.33333333  0.16703916       0.007
  -0.33333333 -0.33333333  0.58463707       0.007
  -0.16666667 -0.33333333  0.50111749       0.007
   0.00000000 -0.16666667  0.33407833       0.007
   0.16666667 -0.16666667  0.25055875       0.007
   0.33333333 -0.16666667  0.16703916       0.007
   0.50000000 -0.16666667  0.08351958       0.007
  -0.33333333 -0.16666667  0.50111749       0.007
  -0.16666667 -0.16666667  0.41759791       0.007
   0.00000000  0.00000000  0.50111749       0.007
   0.16666667  0.00000000  0.41759791       0.007
   0.33333333  0.00000000  0.33407833       0.007
   0.50000000  0.00000000  0.25055875       0.007
  -0.33333333  0.00000000  0.66815666       0.007
  -0.16666667  0.00000000  0.58463707       0.007
   0.00000000  0.16666667  0.41759791       0.007
   0.16666667  0.16666667  0.33407833       0.007
   0.33333333  0.16666667  0.25055875       0.007
   0.50000000  0.16666667  0.16703916       0.007
  -0.33333333  0.16666667  0.58463707       0.007
  -0.16666667  0.16666667  0.50111749       0.007
   0.00000000  0.33333333  0.33407833       0.007
   0.16666667  0.33333333  0.25055875       0.007
   0.33333333  0.33333333  0.16703916       0.007
   0.50000000  0.33333333  0.08351958       0.007
  -0.33333333  0.33333333  0.50111749       0.007
  -0.16666667  0.33333333  0.41759791       0.007
   0.00000000  0.50000000  0.25055875       0.007
   0.16666667  0.50000000  0.16703916       0.007
   0.33333333  0.50000000  0.08351958       0.007
   0.50000000  0.50000000  0.00000000       0.007
  -0.33333333  0.50000000  0.41759791       0.007
  -0.16666667  0.50000000  0.33407833       0.007
   0.00000000 -0.33333333  0.66815666       0.007
   0.16666667 -0.33333333  0.58463707       0.007
   0.33333333 -0.33333333  0.50111749       0.007
   0.50000000 -0.33333333  0.41759791       0.007
  -0.33333333 -0.33333333  0.83519582       0.007
  -0.16666667 -0.33333333  0.75167624       0.007
   0.00000000 -0.16666667  0.58463707       0.007
   0.16666667 -0.16666667  0.50111749       0.007
   0.33333333 -0.16666667  0.41759791       0.007
   0.50000000 -0.16666667  0.33407833       0.007
  -0.33333333 -0.16666667  0.75167624       0.007
  -0.16666667 -0.16666667  0.66815666       0.007
   0.00000000  0.00000000 -0.25055875       0.007
   0.16666667  0.00000000 -0.33407833       0.007
   0.33333333  0.00000000 -0.41759791       0.007
   0.50000000  0.00000000 -0.50111749       0.007
  -0.33333333  0.00000000 -0.08351958       0.007
  -0.16666667  0.00000000 -0.16703916       0.007
   0.00000000  0.16666667 -0.33407833       0.007
   0.16666667  0.16666667 -0.41759791       0.007
   0.33333333  0.16666667 -0.50111749       0.007
   0.50000000  0.16666667 -0.58463707       0.007
  -0.33333333  0.16666667 -0.16703916       0.007
  -0.16666667  0.16666667 -0.25055875       0.007
   0.00000000  0.33333333 -0.41759791       0.007
   0.16666667  0.33333333 -0.50111749       0.007
   0.33333333  0.33333333 -0.58463707       0.007
   0.50000000  0.33333333 -0.66815666       0.007
  -0.33333333  0.33333333 -0.25055875       0.007
  -0.16666667  0.33333333 -0.33407833       0.007
   0.00000000  0.50000000 -0.50111749       0.007
   0.16666667  0.50000000 -0.58463707       0.007
   0.33333333  0.50000000 -0.66815666       0.007
   0.50000000  0.50000000 -0.75167624       0.007
  -0.33333333  0.50000000 -0.33407833       0.007
  -0.16666667  0.50000000 -0.41759791       0.007
   0.00000000 -0.33333333 -0.08351958       0.007
   0.16666667 -0.33333333 -0.16703916       0.007
   0.33333333 -0.33333333 -0.25055875       0.007
   0.50000000 -0.33333333 -0.33407833       0.007
  -0.33333333 -0.33333333  0.08351958       0.007
  -0.16666667 -0.33333333 -0.00000000       0.007
   0.00000000 -0.16666667 -0.16703916       0.007
   0.16666667 -0.16666667 -0.25055875       0.007
   0.33333333 -0.16666667 -0.33407833       0.007
   0.50000000 -0.16666667 -0.41759791       0.007
  -0.33333333 -0.16666667 -0.00000000       0.007
  -0.16666667 -0.16666667 -0.08351958       0.007
   0.00000000  0.00000000  0.00000000       0.000
   0.00000000  0.00384615 -0.00192737       0.000
   0.00000000  0.00769231 -0.00385475       0.000
   0.00000000  0.01153846 -0.00578212       0.000
   0.00000000  0.01538462 -0.00770950       0.000
   0.00000000  0.01923077 -0.00963688       0.000
   0.00000000  0.02307692 -0.01156425       0.000
   0.00000000  0.02692308 -0.01349163       0.000
   0.00000000  0.03076923 -0.01541900       0.000
   0.00000000  0.03461539 -0.01734638       0.000
   0.00000000  0.03846154 -0.01927375       0.000
   0.00000000  0.04230769 -0.02120112       0.000
   0.00000000  0.04615385 -0.02312850       0.000
   0.00000000  0.05000000 -0.02505587       0.000
   0.00000000  0.05384615 -0.02698325       0.000
   0.00000000  0.05769231 -0.02891063       0.000
   0.00000000  0.06153846 -0.03083800       0.000
   0.00000000  0.06538462 -0.03276538       0.000
   0.00000000  0.06923077 -0.03469275       0.000
   0.00000000  0.07307693 -0.03662013       0.000
   0.00000000  0.07692308 -0.03854750       0.000
   0.00000000  0.08076923 -0.04047487       0.000
   0.00000000  0.08461539 -0.04240225       0.000
   0.00000000  0.08846154 -0.04432963       0.000
   0.00000000  0.09230769 -0.04625700       0.000
   0.00000000  0.09615385 -0.04818438       0.000
   0.00000000  0.10000000 -0.05011175       0.000
   0.00000000  0.10384616 -0.05203913       0.000
   0.00000000  0.10769231 -0.05396650       0.000
   0.00000000  0.11153846 -0.05589387       0.000
   0.00000000  0.11538462 -0.05782125       0.000
   0.00000000  0.11923077 -0.05974862       0.000
   0.00000000  0.12307692 -0.06167600       0.000
   0.00000000  0.12692308 -0.06360338       0.000
   0.00000000  0.13076924 -0.06553075       0.000
   0.00000000  0.13461539 -0.06745813       0.000
   0.00000000  0.13846155 -0.06938550       0.000
   0.00000000  0.14230770 -0.07131288       0.000
   0.00000000  0.14615385 -0.07324025       0.000
   0.00000000  0.15000001 -0.07516763       0.000
   0.00000000  0.15384616 -0.07709500       0.000
   0.00000000  0.15769231 -0.07902237       0.000
   0.00000000  0.16153847 -0.08094975       0.000
   0.00000000  0.16538462 -0.08287713       0.000
   0.00000000  0.16923077 -0.08480450       0.000
   0.00000000  0.17307693 -0.08673188       0.000
   0.00000000  0.17692308 -0.08865925       0.000
   0.00000000  0.18076923 -0.09058662       0.000
   0.00000000  0.18461539 -0.09251400       0.000
   0.00000000  0.18846154 -0.09444137       0.000
   0.00000000  0.19230770 -0.09636875       0.000
   0.00000000  0.19615385 -0.09829613       0.000
   0.00000000  0.20000000 -0.10022350       0.000
   0.00000000  0.20384616 -0.10215088       0.000
   0.00000000  0.20769231 -0.10407825       0.000
   0.00000000  0.21153846 -0.10600562       0.000
   0.00000000  0.21538462 -0.10793300       0.000
   0.00000000  0.21923077 -0.10986037       0.000
   0.00000000  0.22307692 -0.11178775       0.000
   0.00000000  0.22692308 -0.11371512       0.000
   0.00000000  0.23076923 -0.11564250       0.000
   0.00000000  0.23461539 -0.11756988       0.000
   0.00000000  0.23846154 -0.11949725       0.000
   0.00000000  0.24230769 -0.12142462       0.000
   0.00000000  0.24615385 -0.12335200       0.000
   0.00000000  0.25000000 -0.12527937       0.000
   0.00000000  0.25384617 -0.12720676       0.000
   0.00000000  0.25769231 -0.12913412       0.000
   0.00000000  0.26153848 -0.13106151       0.000
   0.00000000  0.26538461 -0.13298887       0.000
   0.00000000  0.26923078 -0.13491625       0.000
   0.00000000  0.27307692 -0.13684362       0.000
   0.00000000  0.27692309 -0.13877100       0.000
   0.00000000  0.28076923 -0.14069837       0.000
   0.00000000  0.28461540 -0.14262576       0.000
   0.00000000  0.28846154 -0.14455312       0.000
   0.00000000  0.29230770 -0.14648050       0.000
   0.00000000  0.29615384 -0.14840787       0.000
   0.00000000  0.30000001 -0.15033525       0.000
   0.00000000  0.30384615 -0.15226262       0.000
   0.00000000  0.30769232 -0.15419000       0.000
   0.00000000  0.31153846 -0.15611737       0.000
   0.00000000  0.31538463 -0.15804475       0.000
   0.00000000  0.31923077 -0.15997212       0.000
   0.00000000  0.32307693 -0.16189950       0.000
   0.00000000  0.32692307 -0.16382687       0.000
   0.00000000  0.33076924 -0.16575425       0.000
   0.00000000  0.33461538 -0.16768162       0.000
   0.00000000  0.33846155 -0.16960900       0.000
   0.00000000  0.34230769 -0.17153637       0.000
   0.00000000  0.34615386 -0.17346375       0.000
   0.00000000  0.34999999 -0.17539112       0.000
   0.00000000  0.35384616 -0.17731850       0.000
   0.00000000  0.35769230 -0.17924587       0.000
   0.00000000  0.36153847 -0.18117325       0.000
   0.00000000  0.36538461 -0.18310062       0.000
   0.00000000  0.36923078 -0.18502800       0.000
   0.00000000  0.37307692 -0.18695537       0.000
   0.00000000  0.37692308 -0.18888275       0.000
   0.00000000  0.38076922 -0.19081012       0.000
   0.00000000  0.38461539 -0.19273750       0.000
   0.00000000  0.38846153 -0.19466487       0.000
   0.00000000  0.39230770 -0.19659225       0.000
   0.00000000  0.39615384 -0.19851962       0.000
   0.00000000  0.40000001 -0.20044700       0.000
   0.00000000  0.40384614 -0.20237436       0.000
   0.00000000  0.40769231 -0.20430175       0.000
   0.00000000  0.41153845 -0.20622912       0.000
   0.00000000  0.41538462 -0.20815650       0.000
   0.00000000  0.41923076 -0.21008387       0.000
   0.00000000  0.42307693 -0.21201125       0.000
   0.00000000  0.42692307 -0.21393862       0.000
   0.00000000  0.43076923 -0.21586600       0.000
   0.00000000  0.43461537 -0.21779336       0.000
   0.00000000  0.43846154 -0.21972075       0.000
   0.00000000  0.44230768 -0.22164812       0.000
   0.00000000  0.44615385 -0.22357550       0.000
   0.00000000  0.44999999 -0.22550287       0.000
   0.00000000  0.45384616 -0.22743025       0.000
   0.00000000  0.45769230 -0.22935762       0.000
   0.00000000  0.46153846 -0.23128500       0.000
   0.00000000  0.46538460 -0.23321236       0.000
   0.00000000  0.46923077 -0.23513975       0.000
   0.00000000  0.47307691 -0.23706711       0.000
   0.00000000  0.47692308 -0.23899450       0.000
   0.00000000  0.48076922 -0.24092187       0.000
   0.00000000  0.48461539 -0.24284925       0.000
   0.00000000  0.48846152 -0.24477661       0.000
   0.00000000  0.49230769 -0.24670399       0.000
   0.00000000  0.49615386 -0.24863138       0.000
   0.00000000  0.50000000 -0.25055875       0.000
   0.00384615  0.50000000 -0.25248612       0.000
   0.00769231  0.50000000 -0.25441350       0.000
   0.01153846  0.50000000 -0.25634087       0.000
   0.01538462  0.50000000 -0.25826825       0.000
   0.01923077  0.50000000 -0.26019562       0.000
   0.02307692  0.50000000 -0.26212299       0.000
   0.02692308  0.50000000 -0.26405037       0.000
   0.03076923  0.50000000 -0.26597775       0.000
   0.03461539  0.50000000 -0.26790512       0.000
   0.03846154  0.50000000 -0.26983250       0.000
   0.04230769  0.50000000 -0.27175987       0.000
   0.04615385  0.50000000 -0.27368725       0.000
   0.05000000  0.50000000 -0.27561462       0.000
   0.05384615  0.50000000 -0.27754199       0.000
   0.05769231  0.50000000 -0.27946937       0.000
   0.06153846  0.50000000 -0.28139674       0.000
   0.06538462  0.50000000 -0.28332412       0.000
   0.06923077  0.50000000 -0.28525150       0.000
   0.07307693  0.50000000 -0.28717887       0.000
   0.07692308  0.50000000 -0.28910625       0.000
   0.08076923  0.50000000 -0.29103362       0.000
   0.08461539  0.50000000 -0.29296100       0.000
   0.08846154  0.50000000 -0.29488837       0.000
   0.09230769  0.50000000 -0.29681574       0.000
   0.09615385  0.50000000 -0.29874312       0.000
   0.10000000  0.50000000 -0.30067050       0.000
   0.10384616  0.50000000 -0.30259787       0.000
   0.10769231  0.50000000 -0.30452525       0.000
   0.11153846  0.50000000 -0.30645262       0.000
   0.11538462  0.50000000 -0.30838000       0.000
   0.11923077  0.50000000 -0.31030737       0.000
   0.12307692  0.50000000 -0.31223474       0.000
   0.12692308  0.50000000 -0.31416212       0.000
   0.13076924  0.50000000 -0.31608950       0.000
   0.13461539  0.50000000 -0.31801687       0.000
   0.13846155  0.50000000 -0.31994425       0.000
   0.14230770  0.50000000 -0.32187162       0.000
   0.14615385  0.50000000 -0.32379900       0.000
   0.15000001  0.50000000 -0.32572637       0.000
   0.15384616  0.50000000 -0.32765375       0.000
   0.15769231  0.50000000 -0.32958112       0.000
   0.16153847  0.50000000 -0.33150850       0.000
   0.16538462  0.50000000 -0.33343587       0.000
   0.16923077  0.50000000 -0.33536325       0.000
   0.17307693  0.50000000 -0.33729062       0.000
   0.17692308  0.50000000 -0.33921800       0.000
   0.18076923  0.50000000 -0.34114537       0.000
   0.18461539  0.50000000 -0.34307275       0.000
   0.18846154  0.50000000 -0.34500012       0.000
   0.19230770  0.50000000 -0.34692750       0.000
   0.19615385  0.50000000 -0.34885487       0.000
   0.20000000  0.50000000 -0.35078224       0.000
   0.20384616  0.50000000 -0.35270962       0.000
   0.20769231  0.50000000 -0.35463700       0.000
   0.21153846  0.50000000 -0.35656437       0.000
   0.21538462  0.50000000 -0.35849175       0.000
   0.21923077  0.50000000 -0.36041912       0.000
   0.22307692  0.50000000 -0.36234649       0.000
   0.22692308  0.50000000 -0.36427387       0.000
   0.23076923  0.50000000 -0.36620124       0.000
   0.23461539  0.50000000 -0.36812862       0.000
   0.23846154  0.50000000 -0.37005599       0.000
   0.24230769  0.50000000 -0.37198337       0.000
   0.24615385  0.50000000 -0.37391075       0.000
   0.25000000  0.50000000 -0.37583812       0.000
   0.25384617  0.50000000 -0.37776550       0.000
   0.25769231  0.50000000 -0.37969287       0.000
   0.26153848  0.50000000 -0.38162025       0.000
   0.26538461  0.50000000 -0.38354762       0.000
   0.26923078  0.50000000 -0.38547500       0.000
   0.27307692  0.50000000 -0.38740237       0.000
   0.27692309  0.50000000 -0.38932975       0.000
   0.28076923  0.50000000 -0.39125712       0.000
   0.28461540  0.50000000 -0.39318450       0.000
   0.28846154  0.50000000 -0.39511187       0.000
   0.29230770  0.50000000 -0.39703925       0.000
   0.29615384  0.50000000 -0.39896662       0.000
   0.30000001  0.50000000 -0.40089400       0.000
   0.30384615  0.50000000 -0.40282137       0.000
   0.30769232  0.50000000 -0.40474875       0.000
   0.31153846  0.50000000 -0.40667612       0.000
   0.31538463  0.50000000 -0.40860350       0.000
   0.31923077  0.50000000 -0.41053087       0.000
   0.32307693  0.50000000 -0.41245825       0.000
   0.32692307  0.50000000 -0.41438561       0.000
   0.33076924  0.50000000 -0.41631300       0.000
   0.33461538  0.50000000 -0.41824037       0.000
   0.33846155  0.50000000 -0.42016775       0.000
   0.34230769  0.50000000 -0.42209512       0.000
   0.34615386  0.50000000 -0.42402250       0.000
   0.34999999  0.50000000 -0.42594986       0.000
   0.35384616  0.50000000 -0.42787725       0.000
   0.35769230  0.50000000 -0.42980461       0.000
   0.36153847  0.50000000 -0.43173200       0.000
   0.36538461  0.50000000 -0.43365937       0.000
   0.36923078  0.50000000 -0.43558675       0.000
   0.37307692  0.50000000 -0.43751412       0.000
   0.37692308  0.50000000 -0.43944149       0.000
   0.38076922  0.50000000 -0.44136886       0.000
   0.38461539  0.50000000 -0.44329625       0.000
   0.38846153  0.50000000 -0.44522361       0.000
   0.39230770  0.50000000 -0.44715100       0.000
   0.39615384  0.50000000 -0.44907836       0.000
   0.40000001  0.50000000 -0.45100575       0.000
   0.40384614  0.50000000 -0.45293311       0.000
   0.40769231  0.50000000 -0.45486049       0.000
   0.41153845  0.50000000 -0.45678786       0.000
   0.41538462  0.50000000 -0.45871524       0.000
   0.41923076  0.50000000 -0.46064261       0.000
   0.42307693  0.50000000 -0.46257000       0.000
   0.42692307  0.50000000 -0.46449736       0.000
   0.43076923  0.50000000 -0.46642474       0.000
   0.43461537  0.50000000 -0.46835211       0.000
   0.43846154  0.50000000 -0.47027949       0.000
   0.44230768  0.50000000 -0.47220686       0.000
   0.44615385  0.50000000 -0.47413424       0.000
   0.44999999  0.50000000 -0.47606161       0.000
   0.45384616  0.50000000 -0.47798900       0.000
   0.45769230  0.50000000 -0.47991636       0.000
   0.46153846  0.50000000 -0.48184374       0.000
   0.46538460  0.50000000 -0.48377111       0.000
   0.46923077  0.50000000 -0.48569849       0.000
   0.47307691  0.50000000 -0.48762586       0.000
   0.47692308  0.50000000 -0.48955324       0.000
   0.48076922  0.50000000 -0.49148061       0.000
   0.48461539  0.50000000 -0.49340799       0.000
   0.48846152  0.50000000 -0.49533536       0.000
   0.49230769  0.50000000 -0.49726274       0.000
   0.49615386  0.50000000 -0.49919012       0.000
   0.50000000  0.50000000 -0.50111749       0.000
   0.49726775  0.49726775 -0.49837914       0.000
   0.49453551  0.49453551 -0.49564079       0.000
   0.49180329  0.49180329 -0.49290246       0.000
   0.48907104  0.48907104 -0.49016411       0.000
   0.48633879  0.48633879 -0.48742575       0.000
   0.48360655  0.48360655 -0.48468740       0.000
   0.48087433  0.48087433 -0.48194908       0.000
   0.47814208  0.47814208 -0.47921072       0.000
   0.47540984  0.47540984 -0.47647237       0.000
   0.47267759  0.47267759 -0.47373402       0.000
   0.46994537  0.46994537 -0.47099569       0.000
   0.46721312  0.46721312 -0.46825733       0.000
   0.46448088  0.46448088 -0.46551899       0.000
   0.46174863  0.46174863 -0.46278063       0.000
   0.45901638  0.45901638 -0.46004227       0.000
   0.45628417  0.45628417 -0.45730396       0.000
   0.45355192  0.45355192 -0.45456560       0.000
   0.45081967  0.45081967 -0.45182724       0.000
   0.44808742  0.44808742 -0.44908889       0.000
   0.44535518  0.44535518 -0.44635054       0.000
   0.44262296  0.44262296 -0.44361222       0.000
   0.43989071  0.43989071 -0.44087386       0.000
   0.43715847  0.43715847 -0.43813551       0.000
   0.43442625  0.43442625 -0.43539719       0.000
   0.43169397  0.43169397 -0.43265880       0.000
   0.42896175  0.42896175 -0.42992047       0.000
   0.42622951  0.42622951 -0.42718213       0.000
   0.42349726  0.42349726 -0.42444377       0.000
   0.42076504  0.42076504 -0.42170544       0.000
   0.41803280  0.41803280 -0.41896710       0.000
   0.41530055  0.41530055 -0.41622874       0.000
   0.41256830  0.41256830 -0.41349038       0.000
   0.40983605  0.40983605 -0.41075203       0.000
   0.40710384  0.40710384 -0.40801371       0.000
   0.40437159  0.40437159 -0.40527535       0.000
   0.40163934  0.40163934 -0.40253700       0.000
   0.39890710  0.39890710 -0.39979865       0.000
   0.39617485  0.39617485 -0.39706029       0.000
   0.39344263  0.39344263 -0.39432197       0.000
   0.39071038  0.39071038 -0.39158361       0.000
   0.38797814  0.38797814 -0.38884526       0.000
   0.38524589  0.38524589 -0.38610691       0.000
   0.38251364  0.38251364 -0.38336855       0.000
   0.37978142  0.37978142 -0.38063023       0.000
   0.37704918  0.37704918 -0.37789188       0.000
   0.37431693  0.37431693 -0.37515352       0.000
   0.37158471  0.37158471 -0.37241520       0.000
   0.36885247  0.36885247 -0.36967685       0.000
   0.36612022  0.36612022 -0.36693849       0.000
   0.36338797  0.36338797 -0.36420014       0.000
   0.36065573  0.36065573 -0.36146179       0.000
   0.35792351  0.35792351 -0.35872346       0.000
   0.35519126  0.35519126 -0.35598511       0.000
   0.35245901  0.35245901 -0.35324675       0.000
   0.34972680  0.34972680 -0.35050843       0.000
   0.34699452  0.34699452 -0.34777005       0.000
   0.34426230  0.34426230 -0.34503172       0.000
   0.34153005  0.34153005 -0.34229336       0.000
   0.33879781  0.33879781 -0.33955502       0.000
   0.33606559  0.33606559 -0.33681669       0.000
   0.33333331  0.33333331 -0.33407830       0.000
   0.33060110  0.33060110 -0.33133999       0.000
   0.32786885  0.32786885 -0.32860163       0.000
   0.32513660  0.32513660 -0.32586328       0.000
   0.32240438  0.32240438 -0.32312495       0.000
   0.31967214  0.31967214 -0.32038660       0.000
   0.31693989  0.31693989 -0.31764825       0.000
   0.31420764  0.31420764 -0.31490989       0.000
   0.31147540  0.31147540 -0.31217154       0.000
   0.30874318  0.30874318 -0.30943322       0.000
   0.30601093  0.30601093 -0.30669486       0.000
   0.30327868  0.30327868 -0.30395650       0.000
   0.30054644  0.30054644 -0.30121816       0.000
   0.29781419  0.29781419 -0.29847980       0.000
   0.29508197  0.29508197 -0.29574147       0.000
   0.29234973  0.29234973 -0.29300313       0.000
   0.28961748  0.28961748 -0.29026477       0.000
   0.28688523  0.28688523 -0.28752641       0.000
   0.28415298  0.28415298 -0.28478806       0.000
   0.28142077  0.28142077 -0.28204974       0.000
   0.27868852  0.27868852 -0.27931138       0.000
   0.27595627  0.27595627 -0.27657303       0.000
   0.27322406  0.27322406 -0.27383471       0.000
   0.27049178  0.27049178 -0.27109632       0.000
   0.26775956  0.26775956 -0.26835800       0.000
   0.26502731  0.26502731 -0.26561964       0.000
   0.26229507  0.26229507 -0.26288130       0.000
   0.25956285  0.25956285 -0.26014297       0.000
   0.25683057  0.25683057 -0.25740458       0.000
   0.25409836  0.25409836 -0.25466627       0.000
   0.25136614  0.25136614 -0.25192794       0.000
   0.24863386  0.24863386 -0.24918955       0.000
   0.24590164  0.24590164 -0.24645123       0.000
   0.24316940  0.24316940 -0.24371288       0.000
   0.24043715  0.24043715 -0.24097452       0.000
   0.23770493  0.23770493 -0.23823620       0.000
   0.23497266  0.23497266 -0.23549782       0.000
   0.23224044  0.23224044 -0.23275949       0.000
   0.22950819  0.22950819 -0.23002114       0.000
   0.22677594  0.22677594 -0.22728278       0.000
   0.22404373  0.22404373 -0.22454446       0.000
   0.22131148  0.22131148 -0.22180611       0.000
   0.21857923  0.21857923 -0.21906775       0.000
   0.21584699  0.21584699 -0.21632940       0.000
   0.21311474  0.21311474 -0.21359105       0.000
   0.21038252  0.21038252 -0.21085272       0.000
   0.20765027  0.20765027 -0.20811437       0.000
   0.20491803  0.20491803 -0.20537602       0.000
   0.20218578  0.20218578 -0.20263766       0.000
   0.19945356  0.19945356 -0.19989934       0.000
   0.19672132  0.19672132 -0.19716099       0.000
   0.19398907  0.19398907 -0.19442263       0.000
   0.19125685  0.19125685 -0.19168431       0.000
   0.18852457  0.18852457 -0.18894592       0.000
   0.18579236  0.18579236 -0.18620760       0.000
   0.18306011  0.18306011 -0.18346925       0.000
   0.18032786  0.18032786 -0.18073089       0.000
   0.17759565  0.17759565 -0.17799257       0.000
   0.17486337  0.17486337 -0.17525419       0.000
   0.17213115  0.17213115 -0.17251586       0.000
   0.16939890  0.16939890 -0.16977750       0.000
   0.16666666  0.16666666 -0.16703916       0.000
   0.16393444  0.16393444 -0.16430083       0.000
   0.16120216  0.16120216 -0.16156244       0.000
   0.15846995  0.15846995 -0.15882413       0.000
   0.15573770  0.15573770 -0.15608577       0.000
   0.15300545  0.15300545 -0.15334741       0.000
   0.15027323  0.15027323 -0.15060909       0.000
   0.14754099  0.14754099 -0.14787074       0.000
   0.14480874  0.14480874 -0.14513239       0.000
   0.14207649  0.14207649 -0.14239403       0.000
   0.13934427  0.13934427 -0.13965570       0.000
   0.13661203  0.13661203 -0.13691736       0.000
   0.13387975  0.13387975 -0.13417897       0.000
   0.13114756  0.13114756 -0.13144067       0.000
   0.12841529  0.12841529 -0.12870230       0.000
   0.12568304  0.12568304 -0.12596394       0.000
   0.12295082  0.12295082 -0.12322561       0.000
   0.12021858  0.12021858 -0.12048727       0.000
   0.11748633  0.11748633 -0.11774891       0.000
   0.11475411  0.11475411 -0.11501058       0.000
   0.11202186  0.11202186 -0.11227223       0.000
   0.10928962  0.10928962 -0.10953388       0.000
   0.10655740  0.10655740 -0.10679555       0.000
   0.10382515  0.10382515 -0.10405720       0.000
   0.10109288  0.10109288 -0.10131882       0.000
   0.09836069  0.09836069 -0.09858052       0.000
   0.09562841  0.09562841 -0.09584214       0.000
   0.09289616  0.09289616 -0.09310378       0.000
   0.09016392  0.09016392 -0.09036543       0.000
   0.08743170  0.08743170 -0.08762711       0.000
   0.08469945  0.08469945 -0.08488875       0.000
   0.08196720  0.08196720 -0.08215040       0.000
   0.07923499  0.07923499 -0.07941208       0.000
   0.07650274  0.07650274 -0.07667372       0.000
   0.07377046  0.07377046 -0.07393534       0.000
   0.07103828  0.07103828 -0.07119705       0.000
   0.06830600  0.06830600 -0.06845866       0.000
   0.06557375  0.06557375 -0.06572031       0.000
   0.06284153  0.06284153 -0.06298198       0.000
   0.06010929  0.06010929 -0.06024363       0.000
   0.05737704  0.05737704 -0.05750528       0.000
   0.05464482  0.05464482 -0.05476695       0.000
   0.05191258  0.05191258 -0.05202860       0.000
   0.04918033  0.04918033 -0.04929025       0.000
   0.04644811  0.04644811 -0.04655192       0.000
   0.04371586  0.04371586 -0.04381356       0.000
   0.04098359  0.04098359 -0.04107519       0.000
   0.03825134  0.03825134 -0.03833683       0.000
   0.03551912  0.03551912 -0.03559850       0.000
   0.03278688  0.03278688 -0.03286016       0.000
   0.03005463  0.03005463 -0.03012180       0.000
   0.02732241  0.02732241 -0.02738348       0.000
   0.02459016  0.02459016 -0.02464512       0.000
   0.02185792  0.02185792 -0.02190677       0.000
   0.01912570  0.01912570 -0.01916845       0.000
   0.01639345  0.01639345 -0.01643009       0.000
   0.01366118  0.01366118 -0.01369171       0.000
   0.01092896  0.01092896 -0.01095339       0.000
   0.00819671  0.00819671 -0.00821503       0.000
   0.00546446  0.00546446 -0.00547667       0.000
   0.00273225  0.00273225 -0.00273836       0.000
   0.00000000  0.00000000  0.00000000       0.000
   0.00000000  0.00000000  0.00472752       0.000
   0.00000000  0.00000000  0.00945504       0.000
   0.00000000  0.00000000  0.01418257       0.000
   0.00000000  0.00000000  0.01891009       0.000
   0.00000000  0.00000000  0.02363762       0.000
   0.00000000  0.00000000  0.02836514       0.000
   0.00000000  0.00000000  0.03309267       0.000
   0.00000000  0.00000000  0.03782019       0.000
   0.00000000  0.00000000  0.04254771       0.000
   0.00000000  0.00000000  0.04727523       0.000
   0.00000000  0.00000000  0.05200276       0.000
   0.00000000  0.00000000  0.05673028       0.000
   0.00000000  0.00000000  0.06145781       0.000
   0.00000000  0.00000000  0.06618533       0.000
   0.00000000  0.00000000  0.07091286       0.000
   0.00000000  0.00000000  0.07564038       0.000
   0.00000000  0.00000000  0.08036790       0.000
   0.00000000  0.00000000  0.08509542       0.000
   0.00000000  0.00000000  0.08982296       0.000
   0.00000000  0.00000000  0.09455047       0.000
   0.00000000  0.00000000  0.09927799       0.000
   0.00000000  0.00000000  0.10400552       0.000
   0.00000000  0.00000000  0.10873304       0.000
   0.00000000  0.00000000  0.11346057       0.000
   0.00000000  0.00000000  0.11818809       0.000
   0.00000000  0.00000000  0.12291561       0.000
   0.00000000  0.00000000  0.12764314       0.000
   0.00000000  0.00000000  0.13237066       0.000
   0.00000000  0.00000000  0.13709818       0.000
   0.00000000  0.00000000  0.14182571       0.000
   0.00000000  0.00000000  0.14655323       0.000
   0.00000000  0.00000000  0.15128076       0.000
   0.00000000  0.00000000  0.15600828       0.000
   0.00000000  0.00000000  0.16073579       0.000
   0.00000000  0.00000000  0.16546333       0.000
   0.00000000  0.00000000  0.17019085       0.000
   0.00000000  0.00000000  0.17491837       0.000
   0.00000000  0.00000000  0.17964590       0.000
   0.00000000  0.00000000  0.18437342       0.000
   0.00000000  0.00000000  0.18910095       0.000
   0.00000000  0.00000000  0.19382847       0.000
   0.00000000  0.00000000  0.19855598       0.000
   0.00000000  0.00000000  0.20328352       0.000
   0.00000000  0.00000000  0.20801103       0.000
   0.00000000  0.00000000  0.21273856       0.000
   0.00000000  0.00000000  0.21746609       0.000
   0.00000000  0.00000000  0.22219361       0.000
   0.00000000  0.00000000  0.22692113       0.000
   0.00000000  0.00000000  0.23164866       0.000
   0.00000000  0.00000000  0.23637617       0.000
   0.00000000  0.00000000  0.24110371       0.000
   0.00000000  0.00000000  0.24583122       0.000
   0.00000000  0.00000000  0.25055875       0.000
   0.00000000  0.00000000  0.25528628       0.000
   0.00000000  0.00000000  0.26001378       0.000
   0.00000000  0.00000000  0.26474132       0.000
   0.00000000  0.00000000  0.26946886       0.000
   0.00000000  0.00000000  0.27419636       0.000
   0.00000000  0.00000000  0.27892389       0.000
   0.00000000  0.00000000  0.28365143       0.000
   0.00000000  0.00000000  0.28837894       0.000
   0.00000000  0.00000000  0.29310647       0.000
   0.00000000  0.00000000  0.29783397       0.000
   0.00000000  0.00000000  0.30256151       0.000
   0.00000000  0.00000000  0.30728904       0.000
   0.00000000  0.00000000  0.31201655       0.000
   0.00000000  0.00000000  0.31674408       0.000
   0.00000000  0.00000000  0.32147159       0.000
   0.00000000  0.00000000  0.32619912       0.000
   0.00000000  0.00000000  0.33092666       0.000
   0.00000000  0.00000000  0.33565416       0.000
   0.00000000  0.00000000  0.34038170       0.000
   0.00000000  0.00000000  0.34510923       0.000
   0.00000000  0.00000000  0.34983674       0.000
   0.00000000  0.00000000  0.35456427       0.000
   0.00000000  0.00000000  0.35929181       0.000
   0.00000000  0.00000000  0.36401931       0.000
   0.00000000  0.00000000  0.36874685       0.000
   0.00000000  0.00000000  0.37347435       0.000
   0.00000000  0.00000000  0.37820189       0.000
   0.00000000  0.00000000  0.38292942       0.000
   0.00000000  0.00000000  0.38765692       0.000
   0.00000000  0.00000000  0.39238446       0.000
   0.00000000  0.00000000  0.39711197       0.000
   0.00000000  0.00000000  0.40183950       0.000
   0.00000000  0.00000000  0.40656703       0.000
   0.00000000  0.00000000  0.41129454       0.000
   0.00000000  0.00000000  0.41602208       0.000
   0.00000000  0.00000000  0.42074961       0.000
   0.00000000  0.00000000  0.42547711       0.000
   0.00000000  0.00000000  0.43020465       0.000
   0.00000000  0.00000000  0.43493219       0.000
   0.00000000  0.00000000  0.43965969       0.000
   0.00000000  0.00000000  0.44438722       0.000
   0.00000000  0.00000000  0.44911473       0.000
   0.00000000  0.00000000  0.45384227       0.000
   0.00000000  0.00000000  0.45856980       0.000
   0.00000000  0.00000000  0.46329730       0.000
   0.00000000  0.00000000  0.46802484       0.000
   0.00000000  0.00000000  0.47275235       0.000
   0.00000000  0.00000000  0.47747988       0.000
   0.00000000  0.00000000  0.48220741       0.000
   0.00000000  0.00000000  0.48693491       0.000
   0.00000000  0.00000000  0.49166246       0.000
   0.00000000  0.00000000  0.49638999       0.000
   0.00000000  0.00000000  0.50111749       0.000
 
 k-points in reciprocal lattice and weights: Automatically generated mesh            
   0.00000000  0.00000000  0.00000000       0.007
   0.16666667  0.00000000  0.00000000       0.007
   0.33333333  0.00000000  0.00000000       0.007
   0.50000000  0.00000000  0.00000000       0.007
  -0.33333333  0.00000000  0.00000000       0.007
  -0.16666667  0.00000000  0.00000000       0.007
   0.00000000  0.16666667  0.00000000       0.007
   0.16666667  0.16666667  0.00000000       0.007
   0.33333333  0.16666667  0.00000000       0.007
   0.50000000  0.16666667  0.00000000       0.007
  -0.33333333  0.16666667  0.00000000       0.007
  -0.16666667  0.16666667  0.00000000       0.007
   0.00000000  0.33333333  0.00000000       0.007
   0.16666667  0.33333333  0.00000000       0.007
   0.33333333  0.33333333  0.00000000       0.007
   0.50000000  0.33333333  0.00000000       0.007
  -0.33333333  0.33333333  0.00000000       0.007
  -0.16666667  0.33333333  0.00000000       0.007
   0.00000000  0.50000000  0.00000000       0.007
   0.16666667  0.50000000  0.00000000       0.007
   0.33333333  0.50000000  0.00000000       0.007
   0.50000000  0.50000000  0.00000000       0.007
  -0.33333333  0.50000000  0.00000000       0.007
  -0.16666667  0.50000000  0.00000000       0.007
   0.00000000 -0.33333333  0.00000000       0.007
   0.16666667 -0.33333333  0.00000000       0.007
   0.33333333 -0.33333333  0.00000000       0.007
   0.50000000 -0.33333333  0.00000000       0.007
  -0.33333333 -0.33333333  0.00000000       0.007
  -0.16666667 -0.33333333  0.00000000       0.007
   0.00000000 -0.16666667  0.00000000       0.007
   0.16666667 -0.16666667  0.00000000       0.007
   0.33333333 -0.16666667  0.00000000       0.007
   0.50000000 -0.16666667  0.00000000       0.007
  -0.33333333 -0.16666667  0.00000000       0.007
  -0.16666667 -0.16666667  0.00000000       0.007
   0.00000000  0.00000000  0.25000000       0.007
   0.16666667  0.00000000  0.25000000       0.007
   0.33333333  0.00000000  0.25000000       0.007
   0.50000000  0.00000000  0.25000000       0.007
  -0.33333333  0.00000000  0.25000000       0.007
  -0.16666667  0.00000000  0.25000000       0.007
   0.00000000  0.16666667  0.25000000       0.007
   0.16666667  0.16666667  0.25000000       0.007
   0.33333333  0.16666667  0.25000000       0.007
   0.50000000  0.16666667  0.25000000       0.007
  -0.33333333  0.16666667  0.25000000       0.007
  -0.16666667  0.16666667  0.25000000       0.007
   0.00000000  0.33333333  0.25000000       0.007
   0.16666667  0.33333333  0.25000000       0.007
   0.33333333  0.33333333  0.25000000       0.007
   0.50000000  0.33333333  0.25000000       0.007
  -0.33333333  0.33333333  0.25000000       0.007
  -0.16666667  0.33333333  0.25000000       0.007
   0.00000000  0.50000000  0.25000000       0.007
   0.16666667  0.50000000  0.25000000       0.007
   0.33333333  0.50000000  0.25000000       0.007
   0.50000000  0.50000000  0.25000000       0.007
  -0.33333333  0.50000000  0.25000000       0.007
  -0.16666667  0.50000000  0.25000000       0.007
   0.00000000 -0.33333333  0.25000000       0.007
   0.16666667 -0.33333333  0.25000000       0.007
   0.33333333 -0.33333333  0.25000000       0.007
   0.50000000 -0.33333333  0.25000000       0.007
  -0.33333333 -0.33333333  0.25000000       0.007
  -0.16666667 -0.33333333  0.25000000       0.007
   0.00000000 -0.16666667  0.25000000       0.007
   0.16666667 -0.16666667  0.25000000       0.007
   0.33333333 -0.16666667  0.25000000       0.007
   0.50000000 -0.16666667  0.25000000       0.007
  -0.33333333 -0.16666667  0.25000000       0.007
  -0.16666667 -0.16666667  0.25000000       0.007
   0.00000000  0.00000000  0.50000000       0.007
   0.16666667  0.00000000  0.50000000       0.007
   0.33333333  0.00000000  0.50000000       0.007
   0.50000000  0.00000000  0.50000000       0.007
  -0.33333333  0.00000000  0.50000000       0.007
  -0.16666667  0.00000000  0.50000000       0.007
   0.00000000  0.16666667  0.50000000       0.007
   0.16666667  0.16666667  0.50000000       0.007
   0.33333333  0.16666667  0.50000000       0.007
   0.50000000  0.16666667  0.50000000       0.007
  -0.33333333  0.16666667  0.50000000       0.007
  -0.16666667  0.16666667  0.50000000       0.007
   0.00000000  0.33333333  0.50000000       0.007
   0.16666667  0.33333333  0.50000000       0.007
   0.33333333  0.33333333  0.50000000       0.007
   0.50000000  0.33333333  0.50000000       0.007
  -0.33333333  0.33333333  0.50000000       0.007
  -0.16666667  0.33333333  0.50000000       0.007
   0.00000000  0.50000000  0.50000000       0.007
   0.16666667  0.50000000  0.50000000       0.007
   0.33333333  0.50000000  0.50000000       0.007
   0.50000000  0.50000000  0.50000000       0.007
  -0.33333333  0.50000000  0.50000000       0.007
  -0.16666667  0.50000000  0.50000000       0.007
   0.00000000 -0.33333333  0.50000000       0.007
   0.16666667 -0.33333333  0.50000000       0.007
   0.33333333 -0.33333333  0.50000000       0.007
   0.50000000 -0.33333333  0.50000000       0.007
  -0.33333333 -0.33333333  0.50000000       0.007
  -0.16666667 -0.33333333  0.50000000       0.007
   0.00000000 -0.16666667  0.50000000       0.007
   0.16666667 -0.16666667  0.50000000       0.007
   0.33333333 -0.16666667  0.50000000       0.007
   0.50000000 -0.16666667  0.50000000       0.007
  -0.33333333 -0.16666667  0.50000000       0.007
  -0.16666667 -0.16666667  0.50000000       0.007
   0.00000000  0.00000000 -0.25000000       0.007
   0.16666667  0.00000000 -0.25000000       0.007
   0.33333333  0.00000000 -0.25000000       0.007
   0.50000000  0.00000000 -0.25000000       0.007
  -0.33333333  0.00000000 -0.25000000       0.007
  -0.16666667  0.00000000 -0.25000000       0.007
   0.00000000  0.16666667 -0.25000000       0.007
   0.16666667  0.16666667 -0.25000000       0.007
   0.33333333  0.16666667 -0.25000000       0.007
   0.50000000  0.16666667 -0.25000000       0.007
  -0.33333333  0.16666667 -0.25000000       0.007
  -0.16666667  0.16666667 -0.25000000       0.007
   0.00000000  0.33333333 -0.25000000       0.007
   0.16666667  0.33333333 -0.25000000       0.007
   0.33333333  0.33333333 -0.25000000       0.007
   0.50000000  0.33333333 -0.25000000       0.007
  -0.33333333  0.33333333 -0.25000000       0.007
  -0.16666667  0.33333333 -0.25000000       0.007
   0.00000000  0.50000000 -0.25000000       0.007
   0.16666667  0.50000000 -0.25000000       0.007
   0.33333333  0.50000000 -0.25000000       0.007
   0.50000000  0.50000000 -0.25000000       0.007
  -0.33333333  0.50000000 -0.25000000       0.007
  -0.16666667  0.50000000 -0.25000000       0.007
   0.00000000 -0.33333333 -0.25000000       0.007
   0.16666667 -0.33333333 -0.25000000       0.007
   0.33333333 -0.33333333 -0.25000000       0.007
   0.50000000 -0.33333333 -0.25000000       0.007
  -0.33333333 -0.33333333 -0.25000000       0.007
  -0.16666667 -0.33333333 -0.25000000       0.007
   0.00000000 -0.16666667 -0.25000000       0.007
   0.16666667 -0.16666667 -0.25000000       0.007
   0.33333333 -0.16666667 -0.25000000       0.007
   0.50000000 -0.16666667 -0.25000000       0.007
  -0.33333333 -0.16666667 -0.25000000       0.007
  -0.16666667 -0.16666667 -0.25000000       0.007
   0.00000000  0.00000000  0.00000000       0.000
   0.00000000  0.00384615  0.00000000       0.000
   0.00000000  0.00769231  0.00000000       0.000
   0.00000000  0.01153846  0.00000000       0.000
   0.00000000  0.01538462  0.00000000       0.000
   0.00000000  0.01923077  0.00000000       0.000
   0.00000000  0.02307692  0.00000000       0.000
   0.00000000  0.02692308  0.00000000       0.000
   0.00000000  0.03076923  0.00000000       0.000
   0.00000000  0.03461539  0.00000000       0.000
   0.00000000  0.03846154  0.00000000       0.000
   0.00000000  0.04230769  0.00000000       0.000
   0.00000000  0.04615385  0.00000000       0.000
   0.00000000  0.05000000  0.00000000       0.000
   0.00000000  0.05384615  0.00000000       0.000
   0.00000000  0.05769231  0.00000000       0.000
   0.00000000  0.06153846  0.00000000       0.000
   0.00000000  0.06538462  0.00000000       0.000
   0.00000000  0.06923077  0.00000000       0.000
   0.00000000  0.07307693  0.00000000       0.000
   0.00000000  0.07692308  0.00000000       0.000
   0.00000000  0.08076923  0.00000000       0.000
   0.00000000  0.08461539  0.00000000       0.000
   0.00000000  0.08846154  0.00000000       0.000
   0.00000000  0.09230769  0.00000000       0.000
   0.00000000  0.09615385  0.00000000       0.000
   0.00000000  0.10000000  0.00000000       0.000
   0.00000000  0.10384616  0.00000000       0.000
   0.00000000  0.10769231  0.00000000       0.000
   0.00000000  0.11153846  0.00000000       0.000
   0.00000000  0.11538462  0.00000000       0.000
   0.00000000  0.11923077  0.00000000       0.000
   0.00000000  0.12307692  0.00000000       0.000
   0.00000000  0.12692308  0.00000000       0.000
   0.00000000  0.13076924  0.00000000       0.000
   0.00000000  0.13461539  0.00000000       0.000
   0.00000000  0.13846155  0.00000000       0.000
   0.00000000  0.14230770  0.00000000       0.000
   0.00000000  0.14615385  0.00000000       0.000
   0.00000000  0.15000001  0.00000000       0.000
   0.00000000  0.15384616  0.00000000       0.000
   0.00000000  0.15769231  0.00000000       0.000
   0.00000000  0.16153847  0.00000000       0.000
   0.00000000  0.16538462  0.00000000       0.000
   0.00000000  0.16923077  0.00000000       0.000
   0.00000000  0.17307693  0.00000000       0.000
   0.00000000  0.17692308  0.00000000       0.000
   0.00000000  0.18076923  0.00000000       0.000
   0.00000000  0.18461539  0.00000000       0.000
   0.00000000  0.18846154  0.00000000       0.000
   0.00000000  0.19230770  0.00000000       0.000
   0.00000000  0.19615385  0.00000000       0.000
   0.00000000  0.20000000  0.00000000       0.000
   0.00000000  0.20384616  0.00000000       0.000
   0.00000000  0.20769231  0.00000000       0.000
   0.00000000  0.21153846  0.00000000       0.000
   0.00000000  0.21538462  0.00000000       0.000
   0.00000000  0.21923077  0.00000000       0.000
   0.00000000  0.22307692  0.00000000       0.000
   0.00000000  0.22692308  0.00000000       0.000
   0.00000000  0.23076923  0.00000000       0.000
   0.00000000  0.23461539  0.00000000       0.000
   0.00000000  0.23846154  0.00000000       0.000
   0.00000000  0.24230769  0.00000000       0.000
   0.00000000  0.24615385  0.00000000       0.000
   0.00000000  0.25000000  0.00000000       0.000
   0.00000000  0.25384617  0.00000000       0.000
   0.00000000  0.25769231  0.00000000       0.000
   0.00000000  0.26153848  0.00000000       0.000
   0.00000000  0.26538461  0.00000000       0.000
   0.00000000  0.26923078  0.00000000       0.000
   0.00000000  0.27307692  0.00000000       0.000
   0.00000000  0.27692309  0.00000000       0.000
   0.00000000  0.28076923  0.00000000       0.000
   0.00000000  0.28461540  0.00000000       0.000
   0.00000000  0.28846154  0.00000000       0.000
   0.00000000  0.29230770  0.00000000       0.000
   0.00000000  0.29615384  0.00000000       0.000
   0.00000000  0.30000001  0.00000000       0.000
   0.00000000  0.30384615  0.00000000       0.000
   0.00000000  0.30769232  0.00000000       0.000
   0.00000000  0.31153846  0.00000000       0.000
   0.00000000  0.31538463  0.00000000       0.000
   0.00000000  0.31923077  0.00000000       0.000
   0.00000000  0.32307693  0.00000000       0.000
   0.00000000  0.32692307  0.00000000       0.000
   0.00000000  0.33076924  0.00000000       0.000
   0.00000000  0.33461538  0.00000000       0.000
   0.00000000  0.33846155  0.00000000       0.000
   0.00000000  0.34230769  0.00000000       0.000
   0.00000000  0.34615386  0.00000000       0.000
   0.00000000  0.34999999  0.00000000       0.000
   0.00000000  0.35384616  0.00000000       0.000
   0.00000000  0.35769230  0.00000000       0.000
   0.00000000  0.36153847  0.00000000       0.000
   0.00000000  0.36538461  0.00000000       0.000
   0.00000000  0.36923078  0.00000000       0.000
   0.00000000  0.37307692  0.00000000       0.000
   0.00000000  0.37692308  0.00000000       0.000
   0.00000000  0.38076922  0.00000000       0.000
   0.00000000  0.38461539  0.00000000       0.000
   0.00000000  0.38846153  0.00000000       0.000
   0.00000000  0.39230770  0.00000000       0.000
   0.00000000  0.39615384  0.00000000       0.000
   0.00000000  0.40000001  0.00000000       0.000
   0.00000000  0.40384614  0.00000000       0.000
   0.00000000  0.40769231  0.00000000       0.000
   0.00000000  0.41153845  0.00000000       0.000
   0.00000000  0.41538462  0.00000000       0.000
   0.00000000  0.41923076  0.00000000       0.000
   0.00000000  0.42307693  0.00000000       0.000
   0.00000000  0.42692307  0.00000000       0.000
   0.00000000  0.43076923  0.00000000       0.000
   0.00000000  0.43461537  0.00000000       0.000
   0.00000000  0.43846154  0.00000000       0.000
   0.00000000  0.44230768  0.00000000       0.000
   0.00000000  0.44615385  0.00000000       0.000
   0.00000000  0.44999999  0.00000000       0.000
   0.00000000  0.45384616  0.00000000       0.000
   0.00000000  0.45769230  0.00000000       0.000
[...]
  1       -0.000   0.000  -0.000  -0.000
  2        0.000   0.000  -0.000  -0.000
  3        0.000  -0.000   0.000   0.000
  4       -0.000  -0.000   0.000  -0.000
  5       -0.000   0.000   0.000   0.000
  6       -0.000   0.000   0.000   0.000
  7       -0.000   0.000   0.000   0.000
  8       -0.000   0.000   0.000   0.000
------------------------------------------------
tot       -0.000  -0.000  -0.000  -0.000
 


 magnetization (y)
 
# of ion     s       p       d       tot
----------------------------------------
  1       -0.000   0.000  -0.000  -0.000
  2        0.000   0.000  -0.000  -0.000
  3        0.000  -0.000   0.000   0.000
  4       -0.000  -0.000   0.000  -0.000
  5       -0.000   0.000   0.000   0.000
  6       -0.000   0.000   0.000   0.000
  7       -0.000   0.000   0.000   0.000
  8       -0.000   0.000   0.000   0.000
------------------------------------------------
tot       -0.000   0.000  -0.000  -0.000
 


 magnetization (z)
 
# of ion     s       p       d       tot
----------------------------------------
  1        0.000   0.000  -0.000  -0.000
  2        0.000   0.000  -0.000  -0.000
  3        0.000  -0.000   0.000   0.000
  4       -0.000  -0.000  -0.000  -0.000
  5       -0.000   0.000   0.000   0.000
  6       -0.000   0.000   0.000   0.000
  7       -0.000   0.000   0.000   0.000
  8       -0.000   0.000   0.000   0.000
------------------------------------------------
tot       -0.000   0.000  -0.000  -0.000
 
    CHARGE:  cpu time    2.2441: real time    2.2435
    FORLOC:  cpu time    0.0040: real time    0.0044
    FORNL :  cpu time   29.7499: real time   29.7672
    STRESS:  cpu time   35.8422: real time   35.8678
    FORCOR:  cpu time    0.0760: real time    0.0768
    FORHAR:  cpu time    0.0120: real time    0.0111
    OFIELD:  cpu time    0.0040: real time    0.0014

  FORCE on cell =-STRESS in cart. coord.  units (eV):
  Direction    XX          YY          ZZ          XY          YZ          ZX
  --------------------------------------------------------------------------------------
  Alpha Z   275.46753   275.46753   275.46753
  Ewald   -2394.86127 -2394.86127 -2366.21278     0.00000     0.00000     0.00000
  Hartree  1669.39992  1669.39984  1700.18910     0.00107     0.00569     0.00583
  E(xc)    -488.83251  -488.83251  -488.83221    -0.00001    -0.00009    -0.00010
  Local    -633.50436  -633.50415  -693.04507    -0.00073    -0.01707    -0.01748
  n-local   139.71314   139.71323   140.25348    -0.00080     0.00296     0.00325
  augment   521.05908   521.05902   520.59717     0.00022    -0.00046    -0.00080
  Kinetic   909.31736   909.31695   909.32971     0.00188     0.00796     0.00843
  Fock        0.00000     0.00000     0.00000     0.00000     0.00000     0.00000
  -------------------------------------------------------------------------------------
  Total      -2.24110    -2.24136    -2.25306     0.00164    -0.00102    -0.00088
  in kB     -22.41150   -22.41409   -22.53108     0.01637    -0.01016    -0.00882
  external pressure =      -22.45 kB  Pullay stress =        0.00 kB


 VOLUME and BASIS-vectors are now :
 -----------------------------------------------------------------------------
  energy-cutoff  :      500.00
  volume of cell :      160.21
      direct lattice vectors                 reciprocal lattice vectors
     5.435300000  0.000000000  0.000000000     0.183982485  0.000000000 -0.092196841
     0.000000000  5.435300000  0.000000000     0.000000000  0.183982485 -0.092196841
     2.717650000  2.717650000  5.423179281     0.000000000  0.000000000  0.184393683

  length of vectors
     5.435300000  5.435300000  6.646962958     0.205790700  0.205790700  0.184393683


 FORCES acting on ions
    electron-ion (+dipol)            ewald-force                    non-local-force                 convergence-correction
 -----------------------------------------------------------------------------------------------
   -.242E-02 -.101E-02 0.129E-02   0.792E-11 -.246E-11 -.853E-11   0.196E-02 0.850E-03 -.862E-03   -.834E-05 -.525E-04 0.278E-04
   -.163E-02 -.231E-02 0.263E-02   -.757E-11 -.244E-11 0.882E-11   0.139E-02 0.203E-02 -.211E-02   -.479E-04 -.356E-04 0.142E-04
   -.699E-03 -.180E-02 0.120E-02   0.544E-11 -.267E-11 0.605E-11   0.738E-03 0.162E-02 -.977E-03   -.145E-04 0.174E-04 -.781E-05
   -.330E-02 -.240E-02 0.403E-02   -.553E-11 -.253E-11 -.624E-11   0.314E-02 0.234E-02 -.363E-02   0.151E-05 -.331E-05 -.749E-05
   -.632E+02 -.744E+01 0.603E+01   0.613E+02 0.840E+01 -.704E+01   0.157E+01 -.785E+00 0.818E+00   0.735E-03 -.501E-03 0.522E-03
   0.632E+02 0.744E+01 0.603E+01   -.613E+02 -.840E+01 -.704E+01   -.157E+01 0.785E+00 0.817E+00   -.737E-03 0.505E-03 0.516E-03
   0.744E+01 -.632E+02 -.604E+01   -.840E+01 0.613E+02 0.704E+01   0.784E+00 0.157E+01 -.814E+00   0.507E-03 0.738E-03 -.521E-03
   -.744E+01 0.632E+02 -.603E+01   0.840E+01 -.613E+02 0.704E+01   -.786E+00 -.157E+01 -.818E+00   -.500E-03 -.738E-03 -.527E-03
 -----------------------------------------------------------------------------------------------
   -.444E-02 -.407E-02 0.483E-02   -.178E-13 -.711E-14 -.888E-15   0.438E-02 0.424E-02 -.481E-02   -.641E-04 -.703E-04 0.178E-04
 
 
 POSITION                                       TOTAL-FORCE (eV/Angst)
 -----------------------------------------------------------------------------------
      0.00000      0.00000      0.00000        -0.000457     -0.000227      0.000448
      5.43530      2.71765      2.71159        -0.000271     -0.000328      0.000530
      2.71765      2.71765      0.00000         0.000039     -0.000169      0.000210
      2.71765      5.43530      2.71159        -0.000137     -0.000071      0.000386
      1.30213      1.38979      1.32105        -0.369277      0.180552     -0.192323
      4.13317      4.04551      1.32105         0.369861     -0.179913     -0.192562
      6.76316      4.01978      4.10213        -0.180646     -0.369759      0.192115
      4.10744      6.85082      4.10213         0.180889      0.369916      0.191196
 -----------------------------------------------------------------------------------
    total drift:                               -0.000117      0.000101      0.000034


--------------------------------------------------------------------------------------------------------



  FREE ENERGIE OF THE ION-ELECTRON SYSTEM (eV)
  ---------------------------------------------------
  free  energy   TOTEN  =       -35.89302992 eV

  energy  without entropy=      -35.89302992  energy(sigma->0) =      -35.89302992
 


--------------------------------------------------------------------------------------------------------


    POTLOK:  cpu time    0.0880: real time    0.0888


--------------------------------------------------------------------------------------------------------


 writing wavefunctions
     LOOP+:  cpu time 1740.9648: real time 1839.1210
    4ORBIT:  cpu time    0.0000: real time    0.0000

 Spin-Orbit-Coupling matrix elements

 Ion:    1  E_soc:     -0.0611028
 l=   1
     0.0000000    -0.0086138    -0.0086106
    -0.0086138     0.0000000    -0.0086138
    -0.0086106    -0.0086138     0.0000000
 l=   2
     0.0000000    -0.0003044     0.0000000    -0.0003044    -0.0012946
    -0.0003044     0.0000000    -0.0009361    -0.0002887    -0.0003245
     0.0000000    -0.0009361     0.0000000    -0.0009360     0.0000000
    -0.0003044    -0.0002887    -0.0009360     0.0000000    -0.0003244
    -0.0012946    -0.0003245     0.0000000    -0.0003244     0.0000000
 l=   3
     0.0000000     0.0000000     0.0000000     0.0000000     0.0000000     0.0000000     0.0000000
     0.0000000     0.0000000     0.0000000     0.0000000     0.0000000     0.0000000     0.0000000
     0.0000000     0.0000000     0.0000000     0.0000000     0.0000000     0.0000000     0.0000000
     0.0000000     0.0000000     0.0000000     0.0000000     0.0000000     0.0000000     0.0000000
     0.0000000     0.0000000     0.0000000     0.0000000     0.0000000     0.0000000     0.0000000
     0.0000000     0.0000000     0.0000000     0.0000000     0.0000000     0.0000000     0.0000000
     0.0000000     0.0000000     0.0000000     0.0000000     0.0000000     0.0000000     0.0000000

 Ion:    2  E_soc:     -0.0611651
 l=   1
     0.0000000    -0.0086137    -0.0086152
    -0.0086137     0.0000000    -0.0086137
    -0.0086152    -0.0086137     0.0000000
 l=   2
     0.0000000    -0.0002962     0.0000000    -0.0002962    -0.0012372
    -0.0002962     0.0000000    -0.0009889    -0.0003179    -0.0003073
     0.0000000    -0.0009889     0.0000000    -0.0009889     0.0000000
    -0.0002962    -0.0003179    -0.0009889     0.0000000    -0.0003074
    -0.0012372    -0.0003073     0.0000000    -0.0003074     0.0000000
 l=   3
     0.0000000     0.0000000     0.0000000     0.0000000     0.0000000     0.0000000     0.0000000
     0.0000000     0.0000000     0.0000000     0.0000000     0.0000000     0.0000000     0.0000000
     0.0000000     0.0000000     0.0000000     0.0000000     0.0000000     0.0000000     0.0000000
     0.0000000     0.0000000     0.0000000     0.0000000     0.0000000     0.0000000     0.0000000
     0.0000000     0.0000000     0.0000000     0.0000000     0.0000000     0.0000000     0.0000000
     0.0000000     0.0000000     0.0000000     0.0000000     0.0000000     0.0000000     0.0000000
     0.0000000     0.0000000     0.0000000     0.0000000     0.0000000     0.0000000     0.0000000

 Ion:    3  E_soc:     -0.0083759
 l=   1
     0.0000000    -0.0004066    -0.0004066
    -0.0004066     0.0000000    -0.0004066
    -0.0004066    -0.0004066     0.0000000
 l=   2
     0.0000000    -0.0001971     0.0000000    -0.0001971    -0.0007957
    -0.0001971     0.0000000    -0.0005930    -0.0001953    -0.0001986
     0.0000000    -0.0005930     0.0000000    -0.0005930     0.0000000
    -0.0001971    -0.0001953    -0.0005930     0.0000000    -0.0001986
    -0.0007957    -0.0001986     0.0000000    -0.0001986     0.0000000
 l=   3
     0.0000000     0.0000000     0.0000000     0.0000000     0.0000000     0.0000000     0.0000000
     0.0000000     0.0000000     0.0000000     0.0000000     0.0000000     0.0000000     0.0000000
     0.0000000     0.0000000     0.0000000     0.0000000     0.0000000     0.0000000     0.0000000
     0.0000000     0.0000000     0.0000000     0.0000000     0.0000000     0.0000000     0.0000000
     0.0000000     0.0000000     0.0000000     0.0000000     0.0000000     0.0000000     0.0000000
     0.0000000     0.0000000     0.0000000     0.0000000     0.0000000     0.0000000     0.0000000
     0.0000000     0.0000000     0.0000000     0.0000000     0.0000000     0.0000000     0.0000000

 Ion:    4  E_soc:     -0.0942190
 l=   1
     0.0000000    -0.0095359    -0.0095153
    -0.0095359     0.0000000    -0.0095359
    -0.0095153    -0.0095359     0.0000000
 l=   2
     0.0000000    -0.0012732     0.0000000    -0.0012732    -0.0049003
    -0.0012732     0.0000000    -0.0036747    -0.0012754    -0.0012254
     0.0000000    -0.0036747     0.0000000    -0.0036747     0.0000000
    -0.0012732    -0.0012754    -0.0036747     0.0000000    -0.0012254
    -0.0049003    -0.0012254     0.0000000    -0.0012254     0.0000000
 l=   3
     0.0000000     0.0000000     0.0000000     0.0000000     0.0000000     0.0000000     0.0000000
     0.0000000     0.0000000     0.0000000     0.0000000     0.0000000     0.0000000     0.0000000
     0.0000000     0.0000000     0.0000000     0.0000000     0.0000000     0.0000000     0.0000000
     0.0000000     0.0000000     0.0000000     0.0000000     0.0000000     0.0000000     0.0000000
     0.0000000     0.0000000     0.0000000     0.0000000     0.0000000     0.0000000     0.0000000
     0.0000000     0.0000000     0.0000000     0.0000000     0.0000000     0.0000000     0.0000000
     0.0000000     0.0000000     0.0000000     0.0000000     0.0000000     0.0000000     0.0000000

 Ion:    5  E_soc:     -0.0020492
 l=   1
     0.0000000    -0.0003436    -0.0003421
    -0.0003436     0.0000000    -0.0003389
    -0.0003421    -0.0003389     0.0000000
 l=   2
     0.0000000     0.0000000     0.0000000     0.0000000     0.0000000
     0.0000000     0.0000000     0.0000000     0.0000000     0.0000000
     0.0000000     0.0000000     0.0000000     0.0000000     0.0000000
     0.0000000     0.0000000     0.0000000     0.0000000     0.0000000
     0.0000000     0.0000000     0.0000000     0.0000000     0.0000000
 l=   3
     0.0000000     0.0000000     0.0000000     0.0000000     0.0000000     0.0000000     0.0000000
     0.0000000     0.0000000     0.0000000     0.0000000     0.0000000     0.0000000     0.0000000
     0.0000000     0.0000000     0.0000000     0.0000000     0.0000000     0.0000000     0.0000000
     0.0000000     0.0000000     0.0000000     0.0000000     0.0000000     0.0000000     0.0000000
     0.0000000     0.0000000     0.0000000     0.0000000     0.0000000     0.0000000     0.0000000
     0.0000000     0.0000000     0.0000000     0.0000000     0.0000000     0.0000000     0.0000000
     0.0000000     0.0000000     0.0000000     0.0000000     0.0000000     0.0000000     0.0000000

 Ion:    6  E_soc:     -0.0020490
 l=   1
     0.0000000    -0.0003437    -0.0003422
    -0.0003437     0.0000000    -0.0003387
    -0.0003422    -0.0003387     0.0000000
 l=   2
     0.0000000     0.0000000     0.0000000     0.0000000     0.0000000
     0.0000000     0.0000000     0.0000000     0.0000000     0.0000000
     0.0000000     0.0000000     0.0000000     0.0000000     0.0000000
     0.0000000     0.0000000     0.0000000     0.0000000     0.0000000
     0.0000000     0.0000000     0.0000000     0.0000000     0.0000000
 l=   3
     0.0000000     0.0000000     0.0000000     0.0000000     0.0000000     0.0000000     0.0000000
     0.0000000     0.0000000     0.0000000     0.0000000     0.0000000     0.0000000     0.0000000
     0.0000000     0.0000000     0.0000000     0.0000000     0.0000000     0.0000000     0.0000000
     0.0000000     0.0000000     0.0000000     0.0000000     0.0000000     0.0000000     0.0000000
     0.0000000     0.0000000     0.0000000     0.0000000     0.0000000     0.0000000     0.0000000
     0.0000000     0.0000000     0.0000000     0.0000000     0.0000000     0.0000000     0.0000000
     0.0000000     0.0000000     0.0000000     0.0000000     0.0000000     0.0000000     0.0000000

 Ion:    7  E_soc:     -0.0020492
 l=   1
     0.0000000    -0.0003389    -0.0003421
    -0.0003389     0.0000000    -0.0003437
    -0.0003421    -0.0003437     0.0000000
 l=   2
     0.0000000     0.0000000     0.0000000     0.0000000     0.0000000
     0.0000000     0.0000000     0.0000000     0.0000000     0.0000000
     0.0000000     0.0000000     0.0000000     0.0000000     0.0000000
     0.0000000     0.0000000     0.0000000     0.0000000     0.0000000
     0.0000000     0.0000000     0.0000000     0.0000000     0.0000000
 l=   3
     0.0000000     0.0000000     0.0000000     0.0000000     0.0000000     0.0000000     0.0000000
     0.0000000     0.0000000     0.0000000     0.0000000     0.0000000     0.0000000     0.0000000
     0.0000000     0.0000000     0.0000000     0.0000000     0.0000000     0.0000000     0.0000000
     0.0000000     0.0000000     0.0000000     0.0000000     0.0000000     0.0000000     0.0000000
     0.0000000     0.0000000     0.0000000     0.0000000     0.0000000     0.0000000     0.0000000
     0.0000000     0.0000000     0.0000000     0.0000000     0.0000000     0.0000000     0.0000000
     0.0000000     0.0000000     0.0000000     0.0000000     0.0000000     0.0000000     0.0000000

 Ion:    8  E_soc:     -0.0020491
 l=   1
     0.0000000    -0.0003387    -0.0003422
    -0.0003387     0.0000000    -0.0003436
    -0.0003422    -0.0003436     0.0000000
 l=   2
     0.0000000     0.0000000     0.0000000     0.0000000     0.0000000
     0.0000000     0.0000000     0.0000000     0.0000000     0.0000000
     0.0000000     0.0000000     0.0000000     0.0000000     0.0000000
     0.0000000     0.0000000     0.0000000     0.0000000     0.0000000
     0.0000000     0.0000000     0.0000000     0.0000000     0.0000000
 l=   3
     0.0000000     0.0000000     0.0000000     0.0000000     0.0000000     0.0000000     0.0000000
     0.0000000     0.0000000     0.0000000     0.0000000     0.0000000     0.0000000     0.0000000
     0.0000000     0.0000000     0.0000000     0.0000000     0.0000000     0.0000000     0.0000000
     0.0000000     0.0000000     0.0000000     0.0000000     0.0000000     0.0000000     0.0000000
     0.0000000     0.0000000     0.0000000     0.0000000     0.0000000     0.0000000     0.0000000
     0.0000000     0.0000000     0.0000000     0.0000000     0.0000000     0.0000000     0.0000000
     0.0000000     0.0000000     0.0000000     0.0000000     0.0000000     0.0000000     0.0000000
 


 total charge     
 
# of ion     s       p       d       tot
----------------------------------------
  1        0.237   6.176   8.954  15.366
  2        0.236   6.173   8.954  15.363
  3        0.532   0.472   9.796  10.800
  4        1.103   1.124  10.113  12.340
  5        1.322   2.359   0.000   3.681
  6        1.322   2.359   0.000   3.681
  7        1.322   2.359   0.000   3.681
  8        1.322   2.359   0.000   3.681
------------------------------------------------
tot        7.396  23.382  37.816  68.594
 


 magnetization (x)
 
# of ion     s       p       d       tot
----------------------------------------
  1       -0.000   0.000  -0.000  -0.000
  2        0.000   0.000  -0.000  -0.000
  3        0.000  -0.000   0.000   0.000
  4       -0.000  -0.000   0.000  -0.000
  5       -0.000   0.000   0.000   0.000
  6       -0.000   0.000   0.000   0.000
  7       -0.000   0.000   0.000   0.000
  8       -0.000   0.000   0.000   0.000
------------------------------------------------
tot       -0.000  -0.000  -0.000  -0.000
 


 magnetization (y)
 
# of ion     s       p       d       tot
----------------------------------------
  1       -0.000   0.000  -0.000  -0.000
  2        0.000   0.000  -0.000  -0.000
  3        0.000  -0.000   0.000   0.000
  4       -0.000  -0.000   0.000  -0.000
  5       -0.000   0.000   0.000   0.000
  6       -0.000   0.000   0.000   0.000
  7       -0.000   0.000   0.000   0.000
  8       -0.000   0.000   0.000   0.000
------------------------------------------------
tot       -0.000   0.000  -0.000  -0.000
 


 magnetization (z)
 
# of ion     s       p       d       tot
----------------------------------------
  1        0.000   0.000  -0.000  -0.000
  2        0.000   0.000  -0.000  -0.000
  3        0.000  -0.000   0.000   0.000
  4       -0.000  -0.000  -0.000  -0.000
  5       -0.000   0.000   0.000   0.000
  6       -0.000   0.000   0.000   0.000
  7       -0.000   0.000   0.000   0.000
  8       -0.000   0.000   0.000   0.000
------------------------------------------------
tot       -0.000   0.000  -0.000  -0.000
 

 total amount of memory used by VASP on root node   573892. kBytes
========================================================================

   base      :      30000. kBytes
   nonl-proj :      69977. kBytes
   fftplans  :       2103. kBytes
   grid      :       8847. kBytes
   one-center:         62. kBytes
   wavefun   :     462903. kBytes
 
  
  
 General timing and accounting informations for this job:
 ========================================================
  
                  Total CPU time used (sec):     1880.198
                            User time (sec):     1787.184
                          System time (sec):       93.014
                         Elapsed time (sec):     2001.483
  
                   Maximum memory used (kb):      621772.
                   Average memory used (kb):           0.
  
                          Minor page faults:       156663
                          Major page faults:            0
                 Voluntary context switches:         1902
