  12  12   1   0
  0.2070820E+02  0.6290120E-09  0.6273890E-09  0.6297040E-09  0.5000000E-15
  1.000000000000000E-004
  CAR 
 Name                                    
     15.79985837    -19.88787226  301      1.53963601      1.00000000
    -19.888  0.0000E+00  0.0000E+00
    -19.769  0.0000E+00  0.0000E+00
    -19.650  0.0000E+00  0.0000E+00
    -19.531  0.0000E+00  0.0000E+00
    -19.412  0.0000E+00  0.0000E+00
    -19.293  0.0000E+00  0.0000E+00
    -19.174  0.0000E+00  0.0000E+00
    -19.055  0.0000E+00  0.0000E+00
    -18.936  0.0000E+00  0.0000E+00
    -18.817  0.0000E+00  0.0000E+00
    -18.698  0.0000E+00  0.0000E+00
    -18.579  0.0000E+00  0.0000E+00
    -18.460  0.0000E+00  0.0000E+00
    -18.341  0.0000E+00  0.0000E+00
    -18.222  0.1681E+02  0.2000E+01
    -18.103  0.0000E+00  0.2000E+01
    -17.985  0.0000E+00  0.2000E+01
    -17.866  0.0000E+00  0.2000E+01
    -17.747  0.0000E+00  0.2000E+01
    -17.628  0.0000E+00  0.2000E+01
    -17.509  0.0000E+00  0.2000E+01
    -17.390  0.0000E+00  0.2000E+01
    -17.271  0.0000E+00  0.2000E+01
    -17.152  0.0000E+00  0.2000E+01
    -17.033  0.0000E+00  0.2000E+01
    -16.914  0.0000E+00  0.2000E+01
    -16.795  0.0000E+00  0.2000E+01
    -16.676  0.0000E+00  0.2000E+01
    -16.557  0.0000E+00  0.2000E+01
    -16.438  0.0000E+00  0.2000E+01
    -16.319  0.0000E+00  0.2000E+01
    -16.200  0.0000E+00  0.2000E+01
    -16.081  0.0000E+00  0.2000E+01
    -15.962  0.0000E+00  0.2000E+01
    -15.843  0.0000E+00  0.2000E+01
    -15.724  0.0000E+00  0.2000E+01
    -15.605  0.0000E+00  0.2000E+01
    -15.486  0.0000E+00  0.2000E+01
    -15.367  0.0000E+00  0.2000E+01
    -15.248  0.0000E+00  0.2000E+01
    -15.130  0.0000E+00  0.2000E+01
    -15.011  0.3216E+02  0.5825E+01
    -14.892  0.2615E+02  0.1200E+02
    -14.773  0.0000E+00  0.1200E+02
    -14.654  0.0000E+00  0.1200E+02
    -14.535  0.0000E+00  0.1200E+02
    -14.416  0.0000E+00  0.1200E+02
    -14.297  0.0000E+00  0.1200E+02
    -14.178  0.0000E+00  0.1200E+02
    -14.059  0.0000E+00  0.1200E+02
    -13.940  0.0000E+00  0.1200E+02
    -13.821  0.0000E+00  0.1200E+02
    -13.702  0.0000E+00  0.1200E+02
    -13.583  0.0000E+00  0.1200E+02
    -13.464  0.0000E+00  0.1200E+02
    -13.345  0.0000E+00  0.1200E+02
    -13.226  0.0000E+00  0.1200E+02
    -13.107  0.0000E+00  0.1200E+02
    -12.988  0.0000E+00  0.1200E+02
    -12.869  0.0000E+00  0.1200E+02
    -12.750  0.0000E+00  0.1200E+02
    -12.631  0.0000E+00  0.1200E+02
    -12.512  0.0000E+00  0.1200E+02
    -12.393  0.0000E+00  0.1200E+02
    -12.274  0.0000E+00  0.1200E+02
    -12.156  0.0000E+00  0.1200E+02
    -12.037  0.0000E+00  0.1200E+02
    -11.918  0.0000E+00  0.1200E+02
    -11.799  0.0000E+00  0.1200E+02
    -11.680  0.0000E+00  0.1200E+02
    -11.561  0.0000E+00  0.1200E+02
    -11.442  0.0000E+00  0.1200E+02
    -11.323  0.6312E+01  0.1275E+02
    -11.204  0.0000E+00  0.1400E+02
    -11.085  0.0000E+00  0.1400E+02
    -10.966  0.0000E+00  0.1400E+02
    -10.847  0.1102E-01  0.1400E+02
    -10.728  0.1618E+01  0.1420E+02
    -10.609  0.4279E+01  0.1480E+02
    -10.490  0.4709E+01  0.1569E+02
    -10.371  0.2821E+01  0.1625E+02
    -10.252  0.6666E+01  0.1748E+02
    -10.133  0.3827E+01  0.1796E+02
    -10.014  0.4909E+01  0.1859E+02
     -9.895  0.5279E+01  0.1982E+02
     -9.776  0.7784E-01  0.2000E+02
     -9.657  0.0000E+00  0.2000E+02
     -9.538  0.0000E+00  0.2000E+02
     -9.419  0.0000E+00  0.2000E+02
     -9.301  0.0000E+00  0.2000E+02
     -9.182  0.0000E+00  0.2000E+02
     -9.063  0.0000E+00  0.2000E+02
     -8.944  0.0000E+00  0.2000E+02
     -8.825  0.0000E+00  0.2000E+02
     -8.706  0.0000E+00  0.2000E+02
     -8.587  0.0000E+00  0.2000E+02
     -8.468  0.0000E+00  0.2000E+02
     -8.349  0.0000E+00  0.2000E+02
     -8.230  0.0000E+00  0.2000E+02
     -8.111  0.0000E+00  0.2000E+02
     -7.992  0.0000E+00  0.2000E+02
     -7.873  0.0000E+00  0.2000E+02
     -7.754  0.5993E+01  0.2071E+02
     -7.635  0.5650E+01  0.2201E+02
     -7.516  0.8562E+01  0.2400E+02
     -7.397  0.0000E+00  0.2400E+02
     -7.278  0.0000E+00  0.2400E+02
     -7.159  0.0000E+00  0.2400E+02
     -7.040  0.7778E-01  0.2401E+02
     -6.921  0.3929E+00  0.2406E+02
     -6.802  0.3804E+00  0.2411E+02
     -6.683  0.1071E+00  0.2419E+02
     -6.564  0.3113E+00  0.2431E+02
     -6.445  0.1779E+01  0.2455E+02
     -6.327  0.2459E+01  0.2489E+02
     -6.208  0.1863E+01  0.2511E+02
     -6.089  0.2194E+01  0.2537E+02
     -5.970  0.1466E+01  0.2562E+02
     -5.851  0.1319E+01  0.2583E+02
     -5.732  0.1253E+02  0.2778E+02
     -5.613  0.9334E+00  0.2794E+02
     -5.494  0.3402E+00  0.2798E+02
     -5.375  0.1437E-08  0.2799E+02
     -5.256  0.0000E+00  0.2800E+02
     -5.137  0.0000E+00  0.2800E+02
     -5.018  0.0000E+00  0.2800E+02
     -4.899  0.0000E+00  0.2800E+02
     -4.780  0.0000E+00  0.2800E+02
     -4.661  0.0000E+00  0.2800E+02
     -4.542  0.0000E+00  0.2800E+02
     -4.423  0.0000E+00  0.2800E+02
     -4.304  0.0000E+00  0.2800E+02
     -4.185  0.0000E+00  0.2800E+02
     -4.066  0.0000E+00  0.2800E+02
     -3.947  0.0000E+00  0.2800E+02
     -3.828  0.0000E+00  0.2800E+02
     -3.709  0.0000E+00  0.2800E+02
     -3.590  0.1082E+00  0.2801E+02
     -3.472  0.2995E+02  0.3200E+02
     -3.353  0.0000E+00  0.3200E+02
     -3.234  0.0000E+00  0.3200E+02
     -3.115  0.0000E+00  0.3200E+02
     -2.996  0.0000E+00  0.3200E+02
     -2.877  0.0000E+00  0.3200E+02
     -2.758  0.0000E+00  0.3200E+02
     -2.639  0.0000E+00  0.3200E+02
     -2.520  0.0000E+00  0.3200E+02
     -2.401  0.0000E+00  0.3200E+02
     -2.282  0.0000E+00  0.3200E+02
     -2.163  0.5538E-09  0.3200E+02
     -2.044  0.1456E+01  0.3217E+02
     -1.925  0.2897E+01  0.3269E+02
     -1.806  0.1467E+01  0.3301E+02
     -1.687  0.1927E+01  0.3331E+02
     -1.568  0.2593E+01  0.3386E+02
     -1.449  0.3257E+01  0.3450E+02
     -1.330  0.1835E+01  0.3494E+02
     -1.211  0.4670E+00  0.3500E+02
     -1.092  0.8339E-15  0.3500E+02
     -0.973  0.3772E+00  0.3504E+02
     -0.854  0.4064E+01  0.3566E+02
     -0.735  0.4792E+01  0.3657E+02
     -0.616  0.6141E+01  0.3756E+02
     -0.498  0.2821E+01  0.3815E+02
     -0.379  0.4163E+01  0.3874E+02
     -0.260  0.2784E+01  0.3941E+02
     -0.141  0.6432E+01  0.4055E+02
     -0.022  0.5127E+01  0.4147E+02
      0.097  0.7228E+01  0.4262E+02
      0.216  0.5659E+01  0.4382E+02
      0.335  0.6945E+01  0.4501E+02
      0.454  0.5971E+01  0.4603E+02
      0.573  0.1080E+02  0.4768E+02
      0.692  0.4116E+01  0.4846E+02
      0.811  0.2180E+01  0.4921E+02
      0.930  0.2017E+01  0.4965E+02
      1.049  0.1210E+01  0.4983E+02
      1.168  0.3920E+00  0.4989E+02
      1.287  0.3675E+00  0.4997E+02
      1.406  0.1557E+00  0.4999E+02
      1.525  0.7784E-01  0.5000E+02
      1.644  0.0000E+00  0.5000E+02
      1.763  0.0000E+00  0.5000E+02
      1.882  0.0000E+00  0.5000E+02
      2.001  0.0000E+00  0.5000E+02
      2.120  0.0000E+00  0.5000E+02
      2.239  0.0000E+00  0.5000E+02
      2.357  0.0000E+00  0.5000E+02
      2.476  0.0000E+00  0.5000E+02
      2.595  0.0000E+00  0.5000E+02
      2.714  0.0000E+00  0.5000E+02
      2.833  0.0000E+00  0.5000E+02
      2.952  0.8013E-02  0.5000E+02
      3.071  0.1499E+00  0.5004E+02
      3.190  0.9790E+00  0.5021E+02
      3.309  0.3152E+00  0.5029E+02
      3.428  0.2320E+01  0.5060E+02
      3.547  0.9343E+00  0.5075E+02
      3.666  0.8215E+00  0.5088E+02
      3.785  0.6052E+00  0.5104E+02
      3.904  0.5271E-06  0.5106E+02
      4.023  0.1090E+01  0.5122E+02
      4.142  0.1703E+01  0.5142E+02
      4.261  0.2384E+01  0.5180E+02
      4.380  0.2138E+01  0.5212E+02
      4.499  0.2448E+01  0.5261E+02
      4.618  0.1193E+01  0.5292E+02
      4.737  0.3114E+00  0.5298E+02
      4.856  0.0000E+00  0.5300E+02
      4.975  0.0000E+00  0.5300E+02
      5.094  0.7784E-01  0.5301E+02
      5.212  0.1562E+00  0.5303E+02
      5.331  0.6790E+00  0.5315E+02
      5.450  0.2575E+01  0.5353E+02
      5.569  0.3268E+01  0.5402E+02
      5.688  0.2079E+01  0.5440E+02
      5.807  0.2723E+01  0.5493E+02
      5.926  0.2293E+01  0.5537E+02
      6.045  0.3194E+01  0.5592E+02
      6.164  0.1830E+01  0.5635E+02
      6.283  0.4961E+01  0.5715E+02
      6.402  0.2098E+01  0.5758E+02
      6.521  0.4494E+01  0.5836E+02
      6.640  0.4067E+01  0.5899E+02
      6.759  0.3899E+01  0.5979E+02
      6.878  0.2399E+01  0.6027E+02
      6.997  0.3225E+01  0.6083E+02
      7.116  0.4476E+01  0.6159E+02
      7.235  0.4967E+01  0.6238E+02
      7.354  0.4007E+01  0.6303E+02
      7.473  0.4708E+01  0.6373E+02
      7.592  0.3941E+01  0.6436E+02
      7.711  0.4920E+01  0.6537E+02
      7.830  0.4965E+01  0.6612E+02
      7.949  0.2354E+01  0.6668E+02
      8.068  0.3084E+01  0.6729E+02
      8.186  0.3749E+01  0.6792E+02
      8.305  0.4522E+01  0.6879E+02
      8.424  0.4981E+01  0.6960E+02
      8.543  0.5205E+01  0.7051E+02
      8.662  0.5215E+01  0.7155E+02
      8.781  0.4260E+01  0.7228E+02
      8.900  0.4250E+01  0.7319E+02
      9.019  0.4515E+01  0.7400E+02
      9.138  0.5023E+01  0.7487E+02
      9.257  0.3758E+01  0.7572E+02
      9.376  0.4176E+01  0.7649E+02
      9.495  0.5366E+01  0.7732E+02
      9.614  0.3765E+01  0.7811E+02
      9.733  0.4773E+01  0.7901E+02
      9.852  0.2126E+01  0.7961E+02
      9.971  0.4167E+01  0.8032E+02
     10.090  0.4282E+01  0.8116E+02
     10.209  0.3885E+01  0.8207E+02
     10.328  0.4966E+01  0.8290E+02
     10.447  0.4988E+01  0.8369E+02
     10.566  0.3528E+01  0.8430E+02
     10.685  0.4688E+01  0.8504E+02
     10.804  0.3597E+01  0.8568E+02
     10.923  0.3206E+01  0.8633E+02
     11.041  0.3408E+01  0.8710E+02
     11.160  0.2979E+01  0.8753E+02
     11.279  0.2680E+01  0.8799E+02
     11.398  0.3901E+01  0.8870E+02
     11.517  0.5703E+01  0.8958E+02
     11.636  0.4067E+01  0.9024E+02
     11.755  0.4540E+01  0.9098E+02
     11.874  0.5299E+01  0.9190E+02
     11.993  0.4215E+01  0.9272E+02
     12.112  0.5157E+01  0.9373E+02
     12.231  0.5051E+01  0.9455E+02
     12.350  0.5704E+01  0.9546E+02
     12.469  0.3613E+01  0.9624E+02
     12.588  0.4445E+01  0.9708E+02
     12.707  0.3451E+01  0.9771E+02
     12.826  0.4133E+01  0.9846E+02
     12.945  0.4478E+01  0.9937E+02
     13.064  0.4592E+01  0.1001E+03
     13.183  0.3966E+01  0.1010E+03
     13.302  0.6206E+01  0.1021E+03
     13.421  0.2210E+01  0.1026E+03
     13.540  0.5043E+01  0.1035E+03
     13.659  0.1287E+01  0.1038E+03
     13.778  0.4683E+00  0.1038E+03
     13.897  0.3590E+00  0.1039E+03
     14.015  0.0000E+00  0.1040E+03
     14.134  0.7784E-01  0.1040E+03
     14.253  0.7784E-01  0.1040E+03
     14.372  0.0000E+00  0.1040E+03
     14.491  0.0000E+00  0.1040E+03
     14.610  0.0000E+00  0.1040E+03
     14.729  0.0000E+00  0.1040E+03
     14.848  0.0000E+00  0.1040E+03
     14.967  0.0000E+00  0.1040E+03
     15.086  0.0000E+00  0.1040E+03
     15.205  0.0000E+00  0.1040E+03
     15.324  0.0000E+00  0.1040E+03
     15.443  0.0000E+00  0.1040E+03
     15.562  0.0000E+00  0.1040E+03
     15.681  0.0000E+00  0.1040E+03
     15.800  0.0000E+00  0.1040E+03
     15.79985837    -19.88787226  301      1.53963601      1.00000000
    -19.888  0.0000E+00  0.0000E+00  0.0000E+00
    -19.769  0.0000E+00  0.0000E+00  0.0000E+00
    -19.650  0.0000E+00  0.0000E+00  0.0000E+00
    -19.531  0.0000E+00  0.0000E+00  0.0000E+00
    -19.412  0.0000E+00  0.0000E+00  0.0000E+00
    -19.293  0.0000E+00  0.0000E+00  0.0000E+00
    -19.174  0.0000E+00  0.0000E+00  0.0000E+00
    -19.055  0.0000E+00  0.0000E+00  0.0000E+00
    -18.936  0.0000E+00  0.0000E+00  0.0000E+00
    -18.817  0.0000E+00  0.0000E+00  0.0000E+00
    -18.698  0.0000E+00  0.0000E+00  0.0000E+00
    -18.579  0.0000E+00  0.0000E+00  0.0000E+00
    -18.460  0.0000E+00  0.0000E+00  0.0000E+00
    -18.341  0.0000E+00  0.0000E+00  0.0000E+00
    -18.222  0.1004E+01  0.3210E+00  0.0000E+00
    -18.103  0.0000E+00  0.0000E+00  0.0000E+00
    -17.985  0.0000E+00  0.0000E+00  0.0000E+00
    -17.866  0.0000E+00  0.0000E+00  0.0000E+00
    -17.747  0.0000E+00  0.0000E+00  0.0000E+00
    -17.628  0.0000E+00  0.0000E+00  0.0000E+00
    -17.509  0.0000E+00  0.0000E+00  0.0000E+00
    -17.390  0.0000E+00  0.0000E+00  0.0000E+00
    -17.271  0.0000E+00  0.0000E+00  0.0000E+00
    -17.152  0.0000E+00  0.0000E+00  0.0000E+00
    -17.033  0.0000E+00  0.0000E+00  0.0000E+00
    -16.914  0.0000E+00  0.0000E+00  0.0000E+00
    -16.795  0.0000E+00  0.0000E+00  0.0000E+00
    -16.676  0.0000E+00  0.0000E+00  0.0000E+00
    -16.557  0.0000E+00  0.0000E+00  0.0000E+00
    -16.438  0.0000E+00  0.0000E+00  0.0000E+00
    -16.319  0.0000E+00  0.0000E+00  0.0000E+00
    -16.200  0.0000E+00  0.0000E+00  0.0000E+00
    -16.081  0.0000E+00  0.0000E+00  0.0000E+00
    -15.962  0.0000E+00  0.0000E+00  0.0000E+00
    -15.843  0.0000E+00  0.0000E+00  0.0000E+00
    -15.724  0.0000E+00  0.0000E+00  0.0000E+00
    -15.605  0.0000E+00  0.0000E+00  0.0000E+00
    -15.486  0.0000E+00  0.0000E+00  0.0000E+00
    -15.367  0.0000E+00  0.0000E+00  0.0000E+00
    -15.248  0.0000E+00  0.0000E+00  0.0000E+00
    -15.130  0.0000E+00  0.0000E+00  0.0000E+00
    -15.011  0.1730E-04  0.2462E-05  0.0000E+00
    -14.892  0.7859E-05  0.1512E-05  0.0000E+00
    -14.773  0.0000E+00  0.0000E+00  0.0000E+00
    -14.654  0.0000E+00  0.0000E+00  0.0000E+00
    -14.535  0.0000E+00  0.0000E+00  0.0000E+00
    -14.416  0.0000E+00  0.0000E+00  0.0000E+00
    -14.297  0.0000E+00  0.0000E+00  0.0000E+00
    -14.178  0.0000E+00  0.0000E+00  0.0000E+00
    -14.059  0.0000E+00  0.0000E+00  0.0000E+00
    -13.940  0.0000E+00  0.0000E+00  0.0000E+00
    -13.821  0.0000E+00  0.0000E+00  0.0000E+00
    -13.702  0.0000E+00  0.0000E+00  0.0000E+00
    -13.583  0.0000E+00  0.0000E+00  0.0000E+00
    -13.464  0.0000E+00  0.0000E+00  0.0000E+00
    -13.345  0.0000E+00  0.0000E+00  0.0000E+00
    -13.226  0.0000E+00  0.0000E+00  0.0000E+00
    -13.107  0.0000E+00  0.0000E+00  0.0000E+00
    -12.988  0.0000E+00  0.0000E+00  0.0000E+00
    -12.869  0.0000E+00  0.0000E+00  0.0000E+00
    -12.750  0.0000E+00  0.0000E+00  0.0000E+00
    -12.631  0.0000E+00  0.0000E+00  0.0000E+00
    -12.512  0.0000E+00  0.0000E+00  0.0000E+00
    -12.393  0.0000E+00  0.0000E+00  0.0000E+00
    -12.274  0.0000E+00  0.0000E+00  0.0000E+00
    -12.156  0.0000E+00  0.0000E+00  0.0000E+00
    -12.037  0.0000E+00  0.0000E+00  0.0000E+00
    -11.918  0.0000E+00  0.0000E+00  0.0000E+00
    -11.799  0.0000E+00  0.0000E+00  0.0000E+00
    -11.680  0.0000E+00  0.0000E+00  0.0000E+00
    -11.561  0.0000E+00  0.0000E+00  0.0000E+00
    -11.442  0.0000E+00  0.0000E+00  0.0000E+00
    -11.323  0.2021E+01  0.1189E-03  0.0000E+00
    -11.204  0.0000E+00  0.0000E+00  0.0000E+00
    -11.085  0.0000E+00  0.0000E+00  0.0000E+00
    -10.966  0.0000E+00  0.0000E+00  0.0000E+00
    -10.847  0.8095E-04  0.6583E-05  0.0000E+00
    -10.728  0.1760E-01  0.8309E-03  0.0000E+00
    -10.609  0.4946E-01  0.1601E-02  0.0000E+00
    -10.490  0.2534E-01  0.1103E-02  0.0000E+00
    -10.371  0.7753E-02  0.8383E-03  0.0000E+00
    -10.252  0.1736E-01  0.1362E-02  0.0000E+00
    -10.133  0.8857E-03  0.4199E-03  0.0000E+00
    -10.014  0.1381E-02  0.3627E-03  0.0000E+00
     -9.895  0.5704E-02  0.2282E-03  0.0000E+00
     -9.776  0.1629E-03  0.9372E-05  0.0000E+00
     -9.657  0.0000E+00  0.0000E+00  0.0000E+00
     -9.538  0.0000E+00  0.0000E+00  0.0000E+00
     -9.419  0.0000E+00  0.0000E+00  0.0000E+00
     -9.301  0.0000E+00  0.0000E+00  0.0000E+00
     -9.182  0.0000E+00  0.0000E+00  0.0000E+00
     -9.063  0.0000E+00  0.0000E+00  0.0000E+00
     -8.944  0.0000E+00  0.0000E+00  0.0000E+00
     -8.825  0.0000E+00  0.0000E+00  0.0000E+00
     -8.706  0.0000E+00  0.0000E+00  0.0000E+00
     -8.587  0.0000E+00  0.0000E+00  0.0000E+00
     -8.468  0.0000E+00  0.0000E+00  0.0000E+00
     -8.349  0.0000E+00  0.0000E+00  0.0000E+00
     -8.230  0.0000E+00  0.0000E+00  0.0000E+00
     -8.111  0.0000E+00  0.0000E+00  0.0000E+00
     -7.992  0.0000E+00  0.0000E+00  0.0000E+00
     -7.873  0.0000E+00  0.0000E+00  0.0000E+00
     -7.754  0.2575E-04  0.2496E+00  0.0000E+00
     -7.635  0.1662E-04  0.2405E+00  0.0000E+00
     -7.516  0.9144E-04  0.3893E+00  0.0000E+00
     -7.397  0.0000E+00  0.0000E+00  0.0000E+00
     -7.278  0.0000E+00  0.0000E+00  0.0000E+00
     -7.159  0.0000E+00  0.0000E+00  0.0000E+00
     -7.040  0.2834E-10  0.5078E-05  0.0000E+00
     -6.921  0.4599E-08  0.5411E-04  0.0000E+00
     -6.802  0.5524E-05  0.6591E-04  0.0000E+00
     -6.683  0.2900E-05  0.2832E-04  0.0000E+00
     -6.564  0.1939E-07  0.4552E-04  0.0000E+00
     -6.445  0.2716E-04  0.3915E-03  0.0000E+00
     -6.327  0.1731E-03  0.1720E-02  0.0000E+00
     -6.208  0.2782E-03  0.2625E-02  0.0000E+00
     -6.089  0.1085E-02  0.1211E-01  0.0000E+00
     -5.970  0.2296E-02  0.2903E-01  0.0000E+00
     -5.851  0.8405E-02  0.1129E+00  0.0000E+00
     -5.732  0.1919E+00  0.2615E+01  0.0000E+00
     -5.613  0.3845E-02  0.5374E-01  0.0000E+00
     -5.494  0.4929E-03  0.7048E-02  0.0000E+00
     -5.375  0.9724E-12  0.1455E-10  0.0000E+00
     -5.256  0.0000E+00  0.0000E+00  0.0000E+00
     -5.137  0.0000E+00  0.0000E+00  0.0000E+00
     -5.018  0.0000E+00  0.0000E+00  0.0000E+00
     -4.899  0.0000E+00  0.0000E+00  0.0000E+00
     -4.780  0.0000E+00  0.0000E+00  0.0000E+00
     -4.661  0.0000E+00  0.0000E+00  0.0000E+00
     -4.542  0.0000E+00  0.0000E+00  0.0000E+00
     -4.423  0.0000E+00  0.0000E+00  0.0000E+00
     -4.304  0.0000E+00  0.0000E+00  0.0000E+00
     -4.185  0.0000E+00  0.0000E+00  0.0000E+00
     -4.066  0.0000E+00  0.0000E+00  0.0000E+00
     -3.947  0.0000E+00  0.0000E+00  0.0000E+00
     -3.828  0.0000E+00  0.0000E+00  0.0000E+00
     -3.709  0.0000E+00  0.0000E+00  0.0000E+00
     -3.590  0.3523E-07  0.2850E-01  0.0000E+00
     -3.472  0.1317E-03  0.8025E+01  0.0000E+00
     -3.353  0.0000E+00  0.0000E+00  0.0000E+00
     -3.234  0.0000E+00  0.0000E+00  0.0000E+00
     -3.115  0.0000E+00  0.0000E+00  0.0000E+00
     -2.996  0.0000E+00  0.0000E+00  0.0000E+00
     -2.877  0.0000E+00  0.0000E+00  0.0000E+00
     -2.758  0.0000E+00  0.0000E+00  0.0000E+00
     -2.639  0.0000E+00  0.0000E+00  0.0000E+00
     -2.520  0.0000E+00  0.0000E+00  0.0000E+00
     -2.401  0.0000E+00  0.0000E+00  0.0000E+00
     -2.282  0.0000E+00  0.0000E+00  0.0000E+00
     -2.163  0.1134E-14  0.9343E-12  0.0000E+00
     -2.044  0.2116E-04  0.3708E-02  0.0000E+00
     -1.925  0.3462E-03  0.7420E-02  0.0000E+00
     -1.806  0.2006E-03  0.3977E-02  0.0000E+00
     -1.687  0.2259E-03  0.3808E-02  0.0000E+00
     -1.568  0.1141E-03  0.5974E-02  0.0000E+00
     -1.449  0.3543E-03  0.6714E-02  0.0000E+00
     -1.330  0.1394E-03  0.3055E-02  0.0000E+00
     -1.211  0.4994E-04  0.1628E-02  0.0000E+00
     -1.092  0.2087E-17  0.1610E-17  0.0000E+00
     -0.973  0.7077E-03  0.8598E-03  0.0000E+00
     -0.854  0.4803E-02  0.1666E-01  0.0000E+00
     -0.735  0.4197E-02  0.1718E-01  0.0000E+00
     -0.616  0.4688E-02  0.3073E-01  0.0000E+00
     -0.498  0.2302E-02  0.1489E-01  0.0000E+00
     -0.379  0.2875E-02  0.1529E-01  0.0000E+00
     -0.260  0.8229E-03  0.8588E-02  0.0000E+00
     -0.141  0.1227E-02  0.2193E-01  0.0000E+00
     -0.022  0.7242E-03  0.1251E-01  0.0000E+00
      0.097  0.2428E-02  0.1647E-01  0.0000E+00
      0.216  0.1159E-02  0.1186E-01  0.0000E+00
      0.335  0.1333E-02  0.1767E-01  0.0000E+00
      0.454  0.1625E-02  0.1719E-01  0.0000E+00
      0.573  0.3674E-02  0.2855E-01  0.0000E+00
      0.692  0.1081E-02  0.5584E-02  0.0000E+00
      0.811  0.2467E-03  0.3035E-02  0.0000E+00
      0.930  0.3000E-03  0.1363E-02  0.0000E+00
      1.049  0.1541E-03  0.9035E-03  0.0000E+00
      1.168  0.1991E-04  0.3001E-03  0.0000E+00
      1.287  0.1915E-06  0.3064E-03  0.0000E+00
      1.406  0.1947E-10  0.4172E-04  0.0000E+00
      1.525  0.2547E-12  0.4219E-05  0.0000E+00
      1.644  0.0000E+00  0.0000E+00  0.0000E+00
      1.763  0.0000E+00  0.0000E+00  0.0000E+00
      1.882  0.0000E+00  0.0000E+00  0.0000E+00
      2.001  0.0000E+00  0.0000E+00  0.0000E+00
      2.120  0.0000E+00  0.0000E+00  0.0000E+00
      2.239  0.0000E+00  0.0000E+00  0.0000E+00
      2.357  0.0000E+00  0.0000E+00  0.0000E+00
      2.476  0.0000E+00  0.0000E+00  0.0000E+00
      2.595  0.0000E+00  0.0000E+00  0.0000E+00
      2.714  0.0000E+00  0.0000E+00  0.0000E+00
      2.833  0.0000E+00  0.0000E+00  0.0000E+00
      2.952  0.7246E-06  0.1383E-05  0.0000E+00
      3.071  0.2900E-05  0.2784E-04  0.0000E+00
      3.190  0.2388E-04  0.2053E-03  0.0000E+00
      3.309  0.1616E-04  0.9599E-04  0.0000E+00
      3.428  0.1800E-03  0.5349E-03  0.0000E+00
      3.547  0.9094E-04  0.2670E-03  0.0000E+00
      3.666  0.2200E-03  0.3817E-03  0.0000E+00
      3.785  0.9693E-04  0.2771E-03  0.0000E+00
      3.904  0.1340E-10  0.6841E-10  0.0000E+00
      4.023  0.2697E-04  0.2395E-03  0.0000E+00
      4.142  0.5481E-04  0.4411E-03  0.0000E+00
      4.261  0.7065E-04  0.5644E-03  0.0000E+00
      4.380  0.1256E-03  0.6146E-03  0.0000E+00
      4.499  0.2155E-03  0.7570E-03  0.0000E+00
      4.618  0.1094E-03  0.4660E-03  0.0000E+00
      4.737  0.6438E-04  0.1215E-03  0.0000E+00
      4.856  0.0000E+00  0.0000E+00  0.0000E+00
      4.975  0.0000E+00  0.0000E+00  0.0000E+00
      5.094  0.2202E-02  0.1190E-02  0.0000E+00
      5.212  0.3501E-02  0.2503E-02  0.0000E+00
      5.331  0.1165E-01  0.1065E-01  0.0000E+00
      5.450  0.1980E-01  0.2242E-01  0.0000E+00
      5.569  0.3803E-02  0.8516E-02  0.0000E+00
      5.688  0.7134E-02  0.7558E-02  0.0000E+00
      5.807  0.1468E-01  0.1877E-01  0.0000E+00
      5.926  0.3062E-01  0.2725E-01  0.0000E+00
      6.045  0.2333E-01  0.3385E-01  0.0000E+00
      6.164  0.8784E-02  0.1886E-01  0.0000E+00
      6.283  0.2848E-01  0.4886E-01  0.0000E+00
      6.402  0.2292E-01  0.1883E-01  0.0000E+00
      6.521  0.1005E+00  0.3436E-01  0.0000E+00
      6.640  0.6866E-01  0.3607E-01  0.0000E+00
      6.759  0.7086E-01  0.3513E-01  0.0000E+00
      6.878  0.2053E-01  0.2537E-01  0.0000E+00
      6.997  0.3401E-01  0.4337E-01  0.0000E+00
      7.116  0.2263E-01  0.6990E-01  0.0000E+00
      7.235  0.2538E-01  0.8858E-01  0.0000E+00
      7.354  0.2864E-01  0.5781E-01  0.0000E+00
      7.473  0.1367E-01  0.7736E-01  0.0000E+00
      7.592  0.1635E-01  0.7739E-01  0.0000E+00
      7.711  0.1485E-01  0.8802E-01  0.0000E+00
      7.830  0.1997E-01  0.8603E-01  0.0000E+00
      7.949  0.1602E-01  0.5525E-01  0.0000E+00
      8.068  0.1813E-01  0.9109E-01  0.0000E+00
      8.186  0.1762E-01  0.8634E-01  0.0000E+00
      8.305  0.1931E-01  0.1239E+00  0.0000E+00
      8.424  0.1845E-01  0.1226E+00  0.0000E+00
      8.543  0.2564E-01  0.1096E+00  0.0000E+00
      8.662  0.2419E-01  0.1275E+00  0.0000E+00
      8.781  0.2234E-01  0.1155E+00  0.0000E+00
      8.900  0.2172E-01  0.9193E-01  0.0000E+00
      9.019  0.3732E-01  0.1264E+00  0.0000E+00
      9.138  0.3306E-01  0.1372E+00  0.0000E+00
      9.257  0.2867E-01  0.1100E+00  0.0000E+00
      9.376  0.2810E-01  0.1404E+00  0.0000E+00
      9.495  0.2323E-01  0.2108E+00  0.0000E+00
      9.614  0.2521E-01  0.1979E+00  0.0000E+00
      9.733  0.3238E-01  0.2610E+00  0.0000E+00
      9.852  0.1160E-01  0.9318E-01  0.0000E+00
      9.971  0.2000E-01  0.1165E+00  0.0000E+00
     10.090  0.2312E-01  0.1659E+00  0.0000E+00
     10.209  0.2108E-01  0.1223E+00  0.0000E+00
     10.328  0.1997E-01  0.1497E+00  0.0000E+00
     10.447  0.1935E-01  0.1919E+00  0.0000E+00
     10.566  0.1306E-01  0.1125E+00  0.0000E+00
     10.685  0.1463E-01  0.1589E+00  0.0000E+00
     10.804  0.1448E-01  0.9789E-01  0.0000E+00
     10.923  0.1766E-01  0.8172E-01  0.0000E+00
     11.041  0.7828E-02  0.6512E-01  0.0000E+00
     11.160  0.9465E-02  0.8070E-01  0.0000E+00
     11.279  0.1321E-01  0.5838E-01  0.0000E+00
     11.398  0.9967E-02  0.7121E-01  0.0000E+00
     11.517  0.1961E-01  0.1032E+00  0.0000E+00
     11.636  0.1966E-01  0.6326E-01  0.0000E+00
     11.755  0.1791E-01  0.7389E-01  0.0000E+00
     11.874  0.2232E-01  0.9475E-01  0.0000E+00
     11.993  0.2566E-01  0.1041E+00  0.0000E+00
     12.112  0.2117E-01  0.1128E+00  0.0000E+00
     12.231  0.2792E-01  0.1251E+00  0.0000E+00
     12.350  0.2671E-01  0.1351E+00  0.0000E+00
     12.469  0.1705E-01  0.9346E-01  0.0000E+00
     12.588  0.2747E-01  0.1084E+00  0.0000E+00
     12.707  0.2674E-01  0.6038E-01  0.0000E+00
     12.826  0.1357E-01  0.6098E-01  0.0000E+00
     12.945  0.3668E-01  0.7879E-01  0.0000E+00
     13.064  0.2036E-01  0.5008E-01  0.0000E+00
     13.183  0.2229E-01  0.6317E-01  0.0000E+00
     13.302  0.4606E-01  0.7471E-01  0.0000E+00
     13.421  0.1077E-01  0.2762E-01  0.0000E+00
     13.540  0.1832E-01  0.6359E-01  0.0000E+00
     13.659  0.5408E-02  0.2021E-01  0.0000E+00
     13.778  0.6010E-03  0.3847E-02  0.0000E+00
     13.897  0.1016E-03  0.3958E-02  0.0000E+00
     14.015  0.0000E+00  0.0000E+00  0.0000E+00
     14.134  0.1081E-03  0.4636E-03  0.0000E+00
     14.253  0.9481E-05  0.2557E-04  0.0000E+00
     14.372  0.0000E+00  0.0000E+00  0.0000E+00
     14.491  0.0000E+00  0.0000E+00  0.0000E+00
     14.610  0.0000E+00  0.0000E+00  0.0000E+00
     14.729  0.0000E+00  0.0000E+00  0.0000E+00
     14.848  0.0000E+00  0.0000E+00  0.0000E+00
     14.967  0.0000E+00  0.0000E+00  0.0000E+00
     15.086  0.0000E+00  0.0000E+00  0.0000E+00
     15.205  0.0000E+00  0.0000E+00  0.0000E+00
     15.324  0.0000E+00  0.0000E+00  0.0000E+00
     15.443  0.0000E+00  0.0000E+00  0.0000E+00
     15.562  0.0000E+00  0.0000E+00  0.0000E+00
     15.681  0.0000E+00  0.0000E+00  0.0000E+00
     15.800  0.0000E+00  0.0000E+00  0.0000E+00
     15.79985837    -19.88787226  301      1.53963601      1.00000000
    -19.888  0.0000E+00  0.0000E+00  0.0000E+00
    -19.769  0.0000E+00  0.0000E+00  0.0000E+00
    -19.650  0.0000E+00  0.0000E+00  0.0000E+00
    -19.531  0.0000E+00  0.0000E+00  0.0000E+00
    -19.412  0.0000E+00  0.0000E+00  0.0000E+00
    -19.293  0.0000E+00  0.0000E+00  0.0000E+00
    -19.174  0.0000E+00  0.0000E+00  0.0000E+00
    -19.055  0.0000E+00  0.0000E+00  0.0000E+00
    -18.936  0.0000E+00  0.0000E+00  0.0000E+00
    -18.817  0.0000E+00  0.0000E+00  0.0000E+00
    -18.698  0.0000E+00  0.0000E+00  0.0000E+00
    -18.579  0.0000E+00  0.0000E+00  0.0000E+00
    -18.460  0.0000E+00  0.0000E+00  0.0000E+00
    -18.341  0.0000E+00  0.0000E+00  0.0000E+00
    -18.222  0.9344E+01  0.3655E-02  0.0000E+00
    -18.103  0.0000E+00  0.0000E+00  0.0000E+00
    -17.985  0.0000E+00  0.0000E+00  0.0000E+00
    -17.866  0.0000E+00  0.0000E+00  0.0000E+00
    -17.747  0.0000E+00  0.0000E+00  0.0000E+00
    -17.628  0.0000E+00  0.0000E+00  0.0000E+00
    -17.509  0.0000E+00  0.0000E+00  0.0000E+00
    -17.390  0.0000E+00  0.0000E+00  0.0000E+00
    -17.271  0.0000E+00  0.0000E+00  0.0000E+00
    -17.152  0.0000E+00  0.0000E+00  0.0000E+00
    -17.033  0.0000E+00  0.0000E+00  0.0000E+00
    -16.914  0.0000E+00  0.0000E+00  0.0000E+00
    -16.795  0.0000E+00  0.0000E+00  0.0000E+00
    -16.676  0.0000E+00  0.0000E+00  0.0000E+00
    -16.557  0.0000E+00  0.0000E+00  0.0000E+00
    -16.438  0.0000E+00  0.0000E+00  0.0000E+00
    -16.319  0.0000E+00  0.0000E+00  0.0000E+00
    -16.200  0.0000E+00  0.0000E+00  0.0000E+00
    -16.081  0.0000E+00  0.0000E+00  0.0000E+00
    -15.962  0.0000E+00  0.0000E+00  0.0000E+00
    -15.843  0.0000E+00  0.0000E+00  0.0000E+00
    -15.724  0.0000E+00  0.0000E+00  0.0000E+00
    -15.605  0.0000E+00  0.0000E+00  0.0000E+00
    -15.486  0.0000E+00  0.0000E+00  0.0000E+00
    -15.367  0.0000E+00  0.0000E+00  0.0000E+00
    -15.248  0.0000E+00  0.0000E+00  0.0000E+00
    -15.130  0.0000E+00  0.0000E+00  0.0000E+00
    -15.011  0.2330E-04  0.1830E-04  0.0000E+00
    -14.892  0.1498E-04  0.5151E-05  0.0000E+00
    -14.773  0.0000E+00  0.0000E+00  0.0000E+00
    -14.654  0.0000E+00  0.0000E+00  0.0000E+00
    -14.535  0.0000E+00  0.0000E+00  0.0000E+00
    -14.416  0.0000E+00  0.0000E+00  0.0000E+00
    -14.297  0.0000E+00  0.0000E+00  0.0000E+00
    -14.178  0.0000E+00  0.0000E+00  0.0000E+00
    -14.059  0.0000E+00  0.0000E+00  0.0000E+00
    -13.940  0.0000E+00  0.0000E+00  0.0000E+00
    -13.821  0.0000E+00  0.0000E+00  0.0000E+00
    -13.702  0.0000E+00  0.0000E+00  0.0000E+00
    -13.583  0.0000E+00  0.0000E+00  0.0000E+00
    -13.464  0.0000E+00  0.0000E+00  0.0000E+00
    -13.345  0.0000E+00  0.0000E+00  0.0000E+00
    -13.226  0.0000E+00  0.0000E+00  0.0000E+00
    -13.107  0.0000E+00  0.0000E+00  0.0000E+00
    -12.988  0.0000E+00  0.0000E+00  0.0000E+00
    -12.869  0.0000E+00  0.0000E+00  0.0000E+00
    -12.750  0.0000E+00  0.0000E+00  0.0000E+00
    -12.631  0.0000E+00  0.0000E+00  0.0000E+00
    -12.512  0.0000E+00  0.0000E+00  0.0000E+00
    -12.393  0.0000E+00  0.0000E+00  0.0000E+00
    -12.274  0.0000E+00  0.0000E+00  0.0000E+00
    -12.156  0.0000E+00  0.0000E+00  0.0000E+00
    -12.037  0.0000E+00  0.0000E+00  0.0000E+00
    -11.918  0.0000E+00  0.0000E+00  0.0000E+00
    -11.799  0.0000E+00  0.0000E+00  0.0000E+00
    -11.680  0.0000E+00  0.0000E+00  0.0000E+00
    -11.561  0.0000E+00  0.0000E+00  0.0000E+00
    -11.442  0.0000E+00  0.0000E+00  0.0000E+00
    -11.323  0.1846E+00  0.7985E+00  0.0000E+00
    -11.204  0.0000E+00  0.0000E+00  0.0000E+00
    -11.085  0.0000E+00  0.0000E+00  0.0000E+00
    -10.966  0.0000E+00  0.0000E+00  0.0000E+00
    -10.847  0.5280E-04  0.1470E-04  0.0000E+00
    -10.728  0.7461E-02  0.5911E-02  0.0000E+00
    -10.609  0.1580E-01  0.2389E-01  0.0000E+00
    -10.490  0.7707E-02  0.2409E-01  0.0000E+00
    -10.371  0.3790E-02  0.1034E-01  0.0000E+00
    -10.252  0.7252E-02  0.2061E-01  0.0000E+00
    -10.133  0.4149E-03  0.8771E-02  0.0000E+00
    -10.014  0.8904E-04  0.1956E-02  0.0000E+00
     -9.895  0.1636E-02  0.3508E-02  0.0000E+00
     -9.776  0.5303E-04  0.3469E-04  0.0000E+00
     -9.657  0.0000E+00  0.0000E+00  0.0000E+00
     -9.538  0.0000E+00  0.0000E+00  0.0000E+00
     -9.419  0.0000E+00  0.0000E+00  0.0000E+00
     -9.301  0.0000E+00  0.0000E+00  0.0000E+00